/*--------------------------------*- C++ -*----------------------------------*\
| =========                 |                                                 |
| \\      /  F ield         | OpenFOAM: The Open Source CFD Toolbox           |
|  \\    /   O peration     | Version:  v1812                                 |
|   \\  /    A nd           | Web:      www.OpenFOAM.com                      |
|    \\/     M anipulation  |                                                 |
\*---------------------------------------------------------------------------*/
FoamFile
{
    version     2.0;
    format      ascii;
    class       volScalarField;
    location    "0.5";
    object      p;
}
// * * * * * * * * * * * * * * * * * * * * * * * * * * * * * * * * * * * * * //

dimensions      [0 2 -2 0 0 0 0];


internalField   nonuniform List<scalar> 
3200
(
1.70129e-05
-0.00115706
-0.00389237
-0.00757208
-0.0115215
-0.0152459
-0.0183871
-0.0206927
-0.021995
-0.0221945
-0.0212456
-0.0191462
-0.01593
-0.01166
-0.00642346
-0.00032831
0.00650047
0.0139234
0.0217891
0.0299365
0.0381974
0.0463991
0.054367
0.0619283
0.068915
0.0751688
0.0805447
0.0849168
0.0881833
0.0902727
0.0911501
0.0908241
0.0893549
0.0868635
0.0835433
0.0796736
0.0756349
0.071935
0.0692427
0.0681321
0.0012139
2.91838e-05
-0.00218373
-0.0050302
-0.00806741
-0.0109312
-0.0133374
-0.015073
-0.015988
-0.0159863
-0.0150179
-0.0130711
-0.0101667
-0.00635278
-0.0017004
0.00369987
0.00974093
0.0163019
0.0232504
0.0304453
0.0377387
0.0449786
0.052012
0.0586877
0.06486
0.0703922
0.0751609
0.0790607
0.0820088
0.08395
0.0848626
0.0847635
0.0837148
0.0818295
0.079278
0.0762942
0.0731793
0.0703082
0.0681282
0.0670232
0.00396713
0.00223427
-9.54967e-06
-0.00256811
-0.005197
-0.00762495
-0.00962877
-0.011037
-0.0117239
-0.0116058
-0.0106367
-0.00880331
-0.00612104
-0.00262965
0.00161001
0.00651896
0.0120028
0.017954
0.0242543
0.0307769
0.037389
0.0439537
0.0503335
0.0563923
0.0619996
0.0670333
0.0713841
0.0749592
0.0776867
0.0795202
0.0804429
0.0804726
0.0796658
0.0781213
0.0759834
0.0734427
0.0707388
0.0681545
0.0659501
0.0643285
0.00773716
0.00510973
0.00247552
-0.000152718
-0.00270986
-0.00499204
-0.00682578
-0.00807976
-0.00865548
-0.00848613
-0.00753506
-0.0057929
-0.00327451
-1.60981e-05
0.00392733
0.00848441
0.0135696
0.0190852
0.0249233
0.030968
0.0370974
0.0431861
0.0491072
0.0547358
0.0599513
0.0646413
0.068705
0.0720566
0.0746297
0.0763808
0.0772927
0.0773788
0.0766855
0.0752945
0.073323
0.0709226
0.0682848
0.0656282
0.0630432
0.0605601
0.0119309
0.00826435
0.00506829
0.00219031
-0.000469514
-0.0027607
-0.004552
-0.00574947
-0.0062818
-0.00610058
-0.00518088
-0.00351972
-0.00113423
0.00194035
0.00565244
0.009936
0.0147122
0.0198909
0.0253728
0.0310505
0.0368111
0.042538
0.0481128
0.0534188
0.0583429
0.0627791
0.0666319
0.0698195
0.0722773
0.0739613
0.0748514
0.0749535
0.0743019
0.0729602
0.0710196
0.0685963
0.0658427
0.0629279
0.0597862
0.0562916
0.0161232
0.0113747
0.00752366
0.00427754
0.00139219
-0.00102219
-0.00286843
-0.00408553
-0.0046275
-0.0044642
-0.00358333
-0.00198988
0.000294918
0.00323479
0.00677958
0.0108665
0.0154215
0.0203601
0.0255892
0.0310085
0.0365115
0.0419882
0.0473266
0.0524154
0.0571464
0.0614174
0.0651353
0.0682193
0.0706039
0.072242
0.0731077
0.0731978
0.0725339
0.0711618
0.0691489
0.0665814
0.0635813
0.0602825
0.0564839
0.0519274
0.0200048
0.0141799
0.00962692
0.0059365
0.00274079
0.000121124
-0.00185172
-0.00314476
-0.00373464
-0.00360845
-0.00276657
-0.00122275
0.000996452
0.00385224
0.00729423
0.0112612
0.0156819
0.020476
0.0255546
0.0308222
0.0361772
0.041514
0.0467245
0.0517008
0.056337
0.0605321
0.0641929
0.0672371
0.0695957
0.0712162
0.072065
0.0721289
0.0714161
0.069956
0.0677952
0.064995
0.0616556
0.057888
0.0533764
0.0477543
0.0233426
0.0164661
0.0111932
0.00701491
0.00345637
0.000578787
-0.00156716
-0.00297194
-0.00363204
-0.00355028
-0.00273931
-0.00122182
0.000969553
0.00379247
0.00719508
0.0111163
0.0154864
0.0202272
0.0252529
0.0304708
0.0357824
0.0410847
0.0462719
0.0512369
0.0558741
0.0600816
0.063764
0.0668348
0.0692199
0.0708593
0.0717104
0.0717488
0.0709695
0.0693865
0.0670288
0.0639378
0.0601987
0.0559092
0.0506557
0.0439805
0.0259547
0.0180541
0.0120579
0.00736935
0.00341834
0.000252419
-0.00209295
-0.00362788
-0.00436616
-0.00432489
-0.00352823
-0.00200781
0.00019733
0.00304058
0.00646768
0.0104167
0.014818
0.0195945
0.0246619
0.029929
0.035299
0.0406697
0.0459357
0.0509895
0.0557236
0.0600333
0.0638187
0.0669877
0.0694587
0.071163
0.0720474
0.0720756
0.0712295
0.0695089
0.0669272
0.0635103
0.059334
0.0544896
0.0484778
0.0407616
0.0276905
0.0187882
0.0120713
0.00686275
0.00250514
-0.000963265
-0.00351855
-0.00518763
-0.0059995
-0.00598425
-0.00517691
-0.00361781
-0.00135264
0.00156725
0.00508451
0.00913543
0.0136497
0.0185502
0.0237528
0.0291671
0.0346961
0.0402376
0.0456848
0.0509283
0.0558573
0.0603624
0.0643374
0.0676829
0.0703079
0.0721335
0.0730947
0.0731424
0.0722452
0.0703893
0.0675747
0.0638142
0.0591786
0.0537581
0.0469754
0.0382204
0.0284173
0.0185267
0.0110929
0.00536202
0.000594288
-0.00317849
-0.00594154
-0.00773652
-0.0086062
-0.00859269
-0.00774137
-0.00610114
-0.00372444
-0.000667711
0.00300806
0.00723677
0.0119466
0.0170597
0.0224914
0.0281506
0.0339398
0.039755
0.0454875
0.0510242
0.0562498
0.0610484
0.0653065
0.0689149
0.0717721
0.0737869
0.0748814
0.0749927
0.0740755
0.0721025
0.069061
0.0649531
0.0598471
0.053836
0.0462679
0.036463
0.0280095
0.0171343
0.00898577
0.0027346
-0.0024393
-0.0065089
-0.00946712
-0.0113692
-0.0122707
-0.0122253
-0.0112886
-0.00951777
-0.00697233
-0.00371409
0.000191949
0.00467681
0.0096667
0.0150822
0.0208378
0.0268409
0.0329926
0.0391867
0.0453111
0.0512484
0.0568772
0.0620743
0.0667167
0.0706843
0.0738631
0.076148
0.0774463
0.07768
0.0767889
0.0747318
0.0714834
0.0670357
0.0614564
0.0548437
0.0464715
0.0355902
0.0263418
0.014476
0.00561201
-0.00115502
-0.00672561
-0.0110768
-0.0142085
-0.0161892
-0.017087
-0.0169671
-0.0158951
-0.0139371
-0.0111595
-0.00763005
-0.00341794
0.00140458
0.00676137
0.0125713
0.0187471
0.0251951
0.0318138
0.0384945
0.0451213
0.0515713
0.0577164
0.0634246
0.0685621
0.0729962
0.0765987
0.0792486
0.0808364
0.0812671
0.0804639
0.0783705
0.0749483
0.070179
0.0641304
0.0569071
0.0477064
0.0357071
0.0232833
0.0104118
0.000828464
-0.00644851
-0.0124018
-0.0170125
-0.0202877
-0.0223091
-0.0231582
-0.0229118
-0.0216461
-0.0194364
-0.0163567
-0.0124806
-0.00788198
-0.00263658
0.00317699
0.00947565
0.0161707
0.0231664
0.0303594
0.037638
0.0448819
0.0519626
0.0587442
0.0650848
0.0708388
0.0758594
0.0800018
0.0831272
0.0851069
0.0858264
0.0851898
0.0831237
0.0795744
0.0745123
0.0680049
0.0601634
0.0501044
0.0369305
0.0186939
0.0047928
-0.00551711
-0.0132969
-0.0196146
-0.0244559
-0.0278359
-0.0298507
-0.0305959
-0.0301611
-0.0286339
-0.0260995
-0.0226401
-0.0183356
-0.0132649
-0.00750719
-0.0011436
0.00574103
0.0130565
0.0207057
0.0285832
0.0365745
0.0445551
0.0523903
0.0599364
0.0670407
0.0735446
0.0792852
0.0840996
0.0878284
0.0903209
0.0914399
0.0910676
0.08911
0.0854955
0.0801809
0.0732324
0.0647671
0.0538143
0.0393951
0.0124199
-0.002543
-0.0135897
-0.0218638
-0.0285228
-0.0335584
-0.0369949
-0.038945
-0.0395198
-0.0388234
-0.0369563
-0.0340147
-0.0300895
-0.0252678
-0.0196335
-0.0132694
-0.00625877
0.00131199
0.00935178
0.0177626
0.0264377
0.0352601
0.0441015
0.0528216
0.0612681
0.0692777
0.0766773
0.0832868
0.0889226
0.0934021
0.0965493
0.0982005
0.0982114
0.0964634
0.0928633
0.0873504
0.0799871
0.0708957
0.0590089
0.04326
0.00429179
-0.0117741
-0.023571
-0.0323288
-0.0393001
-0.0444845
-0.0479181
-0.0497322
-0.0500569
-0.0490126
-0.0467149
-0.0432721
-0.0387855
-0.0333496
-0.0270535
-0.0199837
-0.0122252
-0.00386524
0.0050051
0.0142878
0.0238758
0.0336509
0.0434816
0.0532228
0.0627141
0.071781
0.0802356
0.0878789
0.0945047
0.0999039
0.103871
0.106212
0.10675
0.105337
0.101851
0.096211
0.0884708
0.0787556
0.0658913
0.0487147
-0.00588016
-0.0231
-0.0356633
-0.0448909
-0.0521379
-0.0574143
-0.0607711
-0.0623626
-0.0623408
-0.0608465
-0.0580122
-0.0539612
-0.0488058
-0.042649
-0.0355858
-0.0277053
-0.0190942
-0.00983911
-3.01532e-05
0.0102362
0.0208541
0.0317055
0.0426576
0.0535611
0.064249
0.0745357
0.0842181
0.0930774
0.100882
0.107394
0.112374
0.11559
0.116829
0.115903
0.112659
0.106983
0.0989187
0.0885895
0.0747014
0.0559858
-0.0183093
-0.0367456
-0.0500947
-0.0597737
-0.0672492
-0.0725456
-0.0757334
-0.0769953
-0.0765103
-0.0744436
-0.0709487
-0.066166
-0.0602209
-0.0532258
-0.0452811
-0.0364791
-0.0269064
-0.0166482
-0.00579146
0.00557068
0.0173357
0.0293878
0.0415951
0.0538063
0.0658488
0.0775274
0.088624
0.0988991
0.108094
0.115939
0.122153
0.126464
0.128611
0.128362
0.125516
0.119923
0.111607
0.100684
0.0857248
0.0653449
-0.0332379
-0.0529682
-0.0671258
-0.0772307
-0.0848731
-0.090097
-0.0929994
-0.0937983
-0.092707
-0.0899206
-0.0856182
-0.0799605
-0.0730884
-0.0651243
-0.0561746
-0.0463335
-0.0356866
-0.0243154
-0.0123019
0.000266989
0.0132947
0.0266709
0.0402671
0.0539329
0.0674927
0.0807435
0.0934532
0.105362
0.116182
0.125607
0.133313
0.138977
0.142281
0.142937
0.140687
0.13533
0.12686
0.115379
0.0993024
0.0771173
-0.0509442
-0.0720652
-0.0870577
-0.0975527
-0.10528
-0.110311
-0.112779
-0.112947
-0.111072
-0.107387
-0.102102
-0.095402
-0.0874458
-0.078367
-0.0682778
-0.0572732
-0.0454359
-0.0328414
-0.0195636
-0.00568026
0.00872189
0.0235414
0.0386573
0.0539236
0.0691652
0.0841743
0.0987072
0.112484
0.125188
0.136473
0.145966
0.153284
0.158045
0.159886
0.158479
0.153555
0.145062
0.13308
0.115842
0.091694
-0.0717518
-0.0943864
-0.110244
-0.121077
-0.128778
-0.133458
-0.135299
-0.134623
-0.131744
-0.12694
-0.120461
-0.112522
-0.103302
-0.0929451
-0.08157
-0.0692706
-0.056124
-0.0421967
-0.027551
-0.0122511
0.00363019
0.0200051
0.0367647
0.0537725
0.0708588
0.087815
0.104389
0.120284
0.135154
0.148612
0.16023
0.169557
0.17613
0.1795
0.179245
0.175007
0.166671
0.154273
0.135837
0.109546
-0.0960438
-0.120349
-0.137105
-0.148203
-0.155725
-0.159842
-0.160803
-0.15901
-0.154847
-0.148654
-0.140728
-0.131318
-0.120625
-0.108808
-0.095988
-0.0822557
-0.0676797
-0.0523132
-0.0362022
-0.0193928
-0.00193855
0.0160922
0.0346084
0.0534893
0.0725764
0.0916666
0.110505
0.128781
0.146123
0.162101
0.176229
0.187977
0.19679
0.202109
0.203395
0.200171
0.192231
0.179544
0.159882
0.131242
-0.124283
-0.150464
-0.168152
-0.179403
-0.186534
-0.189801
-0.189549
-0.186286
-0.180489
-0.172572
-0.162892
-0.151737
-0.139333
-0.125852
-0.111415
-0.0961064
-0.0799816
-0.0630753
-0.0454119
-0.0270133
-0.00790737
0.0118631
0.0322324
0.0531025
0.0743341
0.0957373
0.117062
0.137991
0.158131
0.177011
0.194085
0.208736
0.220299
0.228083
0.2314
0.229617
0.222397
0.209606
0.188705
0.157478
-0.15704
-0.185364
-0.204018
-0.215254
-0.221694
-0.223719
-0.221811
-0.216619
-0.208742
-0.198689
-0.186884
-0.173662
-0.159275
-0.143904
-0.127667
-0.110637
-0.0928482
-0.0743118
-0.0550234
-0.034974
-0.0141588
0.00741293
0.0297085
0.0526617
0.0761619
0.100042
0.124068
0.147924
0.171204
0.193403
0.213912
0.232025
0.246948
0.257834
0.263804
0.264018
0.257958
0.245332
0.223208
0.189109
-0.19504
-0.225859
-0.245497
-0.256461
-0.261779
-0.262021
-0.257865
-0.25015
-0.23963
-0.226932
-0.212558
-0.196895
-0.180218
-0.162711
-0.144484
-0.125587
-0.10603
-0.0857889
-0.0648236
-0.0430862
-0.0205313
0.00287378
0.0271386
0.0522388
0.0781033
0.104601
0.131525
0.158576
0.185349
0.211314
0.235807
0.258026
0.277039
0.29181
0.301224
0.304172
0.299875
0.287805
0.264514
0.227201
-0.239227
-0.273005
-0.293611
-0.303903
-0.307474
-0.305183
-0.297983
-0.28697
-0.273098
-0.257132
-0.239666
-0.221132
-0.201825
-0.181922
-0.161513
-0.140617
-0.119203
-0.0972063
-0.0745404
-0.0511098
-0.0268195
-0.00158595
0.0246526
0.0519245
0.0802112
0.109432
0.139423
0.169923
0.200543
0.230745
0.259825
0.286891
0.310862
0.330486
0.34436
0.351019
0.349321
0.338381
0.314055
0.273108
-0.290867
-0.328213
-0.349692
-0.358682
-0.359589
-0.353713
-0.3424
-0.327088
-0.308976
-0.288993
-0.267823
-0.245939
-0.223639
-0.201077
-0.178306
-0.155297
-0.131968
-0.108198
-0.0838456
-0.058757
-0.0327789
-0.00576737
0.0224018
0.0518214
0.0825393
0.114541
0.14773
0.181899
0.216705
0.251631
0.285954
0.318708
0.348669
0.374344
0.39398
0.40566
0.407737
0.398786
0.373686
0.32858
-0.351716
-0.393419
-0.415512
-0.422189
-0.419073
-0.408136
-0.391277
-0.370377
-0.346932
-0.322044
-0.296479
-0.270728
-0.245064
-0.219595
-0.19431
-0.169113
-0.143853
-0.11834
-0.0923641
-0.0657037
-0.0381378
-0.00945331
0.0205463
0.0520303
0.0851273
0.119908
0.156364
0.194375
0.233676
0.273808
0.314069
0.353458
0.390623
0.423824
0.450907
0.469378
0.4769
0.471242
0.445861
0.395949
-0.424292
-0.471344
-0.493453
-0.496177
-0.487011
-0.468938
-0.444621
-0.416496
-0.386395
-0.355582
-0.32487
-0.294724
-0.26535
-0.236768
-0.208873
-0.181475
-0.154331
-0.127167
-0.0996916
-0.0716072
-0.0426163
-0.0124279
0.0192354
0.0526301
0.0879801
0.125461
0.165176
0.207128
0.251172
0.296961
0.343874
0.390934
0.436715
0.479251
0.515952
0.543622
0.558995
0.558649
0.533911
0.47842
-0.512358
-0.56591
-0.58675
-0.582834
-0.564576
-0.536459
-0.50216
-0.464775
-0.426466
-0.388605
-0.351978
-0.316947
-0.283586
-0.251771
-0.221258
-0.191733
-0.162837
-0.134194
-0.105422
-0.0761348
-0.0459537
-0.0145039
0.01858
0.0536503
0.0910388
0.131044
0.173911
0.2198
0.268739
0.320563
0.374816
0.430643
0.486642
0.540702
0.589809
0.62996
0.656684
0.664834
0.64248
0.580589
-0.621778
-0.682892
-0.699804
-0.684808
-0.652894
-0.610696
-0.56315
-0.514046
-0.465792
-0.419731
-0.376484
-0.336194
-0.298703
-0.263673
-0.23067
-0.199213
-0.168808
-0.138959
-0.109182
-0.0789986
-0.0479436
-0.0155563
0.0186198
0.0550383
0.0941484
0.136388
0.182167
0.231847
0.285687
0.343786
0.405971
0.471651
0.539619
0.607788
0.672836
0.72993
0.773129
0.79486
0.778207
0.709365
-0.762166
-0.830974
-0.838543
-0.805124
-0.752755
-0.690962
-0.626069
-0.562421
-0.50242
-0.447116
-0.39674
-0.351041
-0.309502
-0.271482
-0.236296
-0.203264
-0.171729
-0.141064
-0.110677
-0.0799967
-0.0484723
-0.0155589
0.0192892
0.0566271
0.097025
0.14107
0.189362
0.242496
0.301029
0.365418
0.435917
0.512401
0.594122
0.679324
0.764686
0.844719
0.911884
0.955398
0.950814
0.875731
-0.950203
-1.02342
-1.01069
-0.946764
-0.863978
-0.775292
-0.688166
-0.606994
-0.53363
-0.468383
-0.410759
-0.359875
-0.314703
-0.2742
-0.237376
-0.203316
-0.171186
-0.140226
-0.109735
-0.0790551
-0.047556
-0.0146176
0.0203869
0.0581069
0.0992299
0.144494
0.194699
0.250705
0.313421
0.383766
0.462582
0.55047
0.647514
0.752807
0.863643
0.974468
1.07643
1.15496
1.17483
1.0983
-1.21648
-1.2805
-1.22537
-1.11131
-0.984015
-0.859342
-0.744722
-0.643403
-0.555721
-0.480552
-0.416222
-0.360942
-0.313009
-0.270895
-0.233258
-0.198937
-0.166922
-0.136324
-0.106347
-0.0762596
-0.0453691
-0.0129948
0.0215548
0.0590077
0.100154
0.14587
0.197153
0.255137
0.321121
0.396569
0.483075
0.58226
0.695529
0.823576
0.965398
1.11673
1.26869
1.40342
1.47203
1.41052
-1.61751
-1.63187
-1.4912
-1.2964
-1.1058
-0.93495
-0.788264
-0.665512
-0.563958
-0.48012
-0.410622
-0.352498
-0.303248
-0.260812
-0.223498
-0.18991
-0.158886
-0.129434
-0.10069
-0.0718734
-0.0422512
-0.0111077
0.022289
0.058719
0.0990467
0.144261
0.195523
0.254224
0.322049
0.401043
0.493677
0.602862
0.731866
0.88397
1.06154
1.26418
1.48626
1.70987
1.87343
1.87264
-2.2558
-2.11634
-1.8126
-1.49368
-1.21699
-0.99021
-0.809205
-0.666307
-0.553517
-0.463928
-0.391998
-0.333412
-0.284851
-0.243759
-0.208147
-0.176447
-0.147395
-0.119942
-0.0931954
-0.0663581
-0.0386914
-0.00947422
0.0220331
0.0566276
0.0952069
0.138823
0.188749
0.246566
0.314283
0.394485
0.490534
0.606799
0.748891
0.923777
1.1395
1.40378
1.72025
2.07855
2.41842
2.59067
-3.35596
-2.78052
-2.17155
-1.67584
-1.29257
-1.00574
-0.794215
-0.637341
-0.519378
-0.429206
-0.358993
-0.303193
-0.257841
-0.220056
-0.187695
-0.159125
-0.133065
-0.108477
-0.084487
-0.060328
-0.0352911
-0.00868663
0.0201951
0.0521243
0.0879796
0.128808
0.175905
0.230929
0.296062
0.374248
0.469547
0.587661
0.736664
0.928028
1.17803
1.50834
1.94101
2.49005
3.15516
3.79445
-5.51687
-3.65294
-2.43253
-1.71835
-1.24433
-0.923411
-0.706066
-0.554857
-0.446141
-0.365696
-0.304561
-0.256861
-0.21863
-0.187097
-0.160265
-0.136638
-0.11506
-0.094605
-0.0744954
-0.0540524
-0.0326507
-0.00968147
0.0154822
0.0435227
0.0752222
0.11152
0.15359
0.202958
0.261672
0.332579
0.419773
0.529335
0.670579
0.858298
1.11706
1.48646
2.02013
2.807
4.11536
6.08774
-9.24914
-4.50671
-2.30304
-1.42193
-0.957881
-0.681491
-0.511221
-0.399833
-0.322336
-0.265961
-0.223531
-0.190622
-0.164334
-0.142661
-0.124152
-0.10771
-0.0924776
-0.0777574
-0.0629599
-0.0475649
-0.0310899
-0.0130647
0.00699517
0.0296146
0.0553914
0.0850373
0.119435
0.15972
0.207411
0.264612
0.334377
0.421364
0.533108
0.682852
0.896235
1.2232
1.75466
2.73026
5.04881
9.91217
3.3465e-05
-0.00115282
-0.00389085
-0.00757114
-0.011521
-0.0152455
-0.0183868
-0.0206925
-0.0219949
-0.0221944
-0.0212455
-0.0191461
-0.0159299
-0.0116599
-0.00642344
-0.000328294
0.00650049
0.0139234
0.0217891
0.0299365
0.0381974
0.0463991
0.054367
0.0619283
0.068915
0.0751688
0.0805447
0.0849168
0.0881833
0.0902727
0.0911501
0.0908241
0.0893549
0.0868635
0.0835433
0.0796736
0.0756349
0.071935
0.0692427
0.0681322
0.00121814
3.14288e-05
-0.00218234
-0.00502925
-0.00806678
-0.0109308
-0.0133371
-0.0150728
-0.0159879
-0.0159862
-0.0150178
-0.013071
-0.0101667
-0.00635275
-0.00170037
0.00369989
0.00974095
0.0163019
0.0232504
0.0304453
0.0377387
0.0449786
0.052012
0.0586877
0.06486
0.0703922
0.0751609
0.0790607
0.0820088
0.08395
0.0848626
0.0847635
0.0837148
0.0818295
0.079278
0.0762942
0.0731793
0.0703081
0.0681282
0.0670233
0.00396865
0.00223566
-8.44912e-06
-0.00256731
-0.00519644
-0.00762455
-0.00962848
-0.0110368
-0.0117238
-0.0116057
-0.0106366
-0.00880325
-0.006121
-0.00262961
0.00161004
0.00651898
0.0120028
0.017954
0.0242543
0.0307769
0.037389
0.0439537
0.0503335
0.0563923
0.0619996
0.0670333
0.0713841
0.0749592
0.0776867
0.0795202
0.0804429
0.0804726
0.0796658
0.0781213
0.0759834
0.0734427
0.0707388
0.0681545
0.06595
0.0643286
0.00773809
0.00511068
0.00247632
-0.000152091
-0.00270939
-0.00499169
-0.00682552
-0.00807957
-0.00865534
-0.00848602
-0.00753498
-0.00579284
-0.00327446
-1.60641e-05
0.00392736
0.00848443
0.0135696
0.0190852
0.0249233
0.030968
0.0370974
0.0431861
0.0491072
0.0547358
0.0599513
0.0646413
0.068705
0.0720566
0.0746298
0.0763808
0.0772927
0.0773788
0.0766855
0.0752945
0.0733231
0.0709227
0.0682849
0.0656282
0.0630431
0.0605601
0.0119315
0.00826498
0.00506886
0.00219078
-0.000469135
-0.00276041
-0.00455177
-0.0057493
-0.00628167
-0.00610048
-0.0051808
-0.00351967
-0.00113418
0.00194038
0.00565247
0.00993602
0.0147122
0.0198909
0.0253728
0.0310505
0.0368112
0.042538
0.0481128
0.0534188
0.0583429
0.0627791
0.0666319
0.0698195
0.0722773
0.0739613
0.0748514
0.0749535
0.0743019
0.0729602
0.0710196
0.0685963
0.0658427
0.062928
0.0597862
0.0562916
0.0161235
0.0113751
0.00752406
0.0042779
0.00139249
-0.00102195
-0.00286824
-0.00408538
-0.00462738
-0.00446411
-0.00358326
-0.00198983
0.000294958
0.00323482
0.0067796
0.0108665
0.0154215
0.0203601
0.0255893
0.0310085
0.0365115
0.0419882
0.0473266
0.0524154
0.0571464
0.0614174
0.0651353
0.0682193
0.0706039
0.072242
0.0731077
0.0731978
0.0725339
0.0711618
0.0691489
0.0665814
0.0635813
0.0602825
0.0564839
0.0519274
0.020005
0.0141802
0.0096272
0.00593676
0.00274101
0.000121315
-0.00185156
-0.00314464
-0.00373454
-0.00360837
-0.00276651
-0.0012227
0.000996489
0.00385226
0.00729425
0.0112612
0.0156819
0.020476
0.0255546
0.0308222
0.0361772
0.041514
0.0467245
0.0517008
0.056337
0.0605321
0.0641929
0.0672371
0.0695956
0.0712162
0.072065
0.0721289
0.0714162
0.069956
0.0677952
0.0649949
0.0616556
0.057888
0.0533764
0.0477543
0.0233428
0.0164663
0.0111934
0.0070151
0.00345654
0.000578935
-0.00156704
-0.00297184
-0.00363195
-0.00355022
-0.00273926
-0.00122178
0.000969586
0.0037925
0.0071951
0.0111164
0.0154865
0.0202272
0.0252529
0.0304708
0.0357824
0.0410847
0.0462719
0.0512369
0.0558741
0.0600816
0.063764
0.0668348
0.0692199
0.0708593
0.0717104
0.0717488
0.0709695
0.0693866
0.0670288
0.0639378
0.0601987
0.0559092
0.0506557
0.0439805
0.0259548
0.0180543
0.012058
0.00736949
0.00341847
0.000252533
-0.00209285
-0.0036278
-0.00436609
-0.00432483
-0.00352818
-0.00200777
0.00019736
0.0030406
0.00646769
0.0104167
0.014818
0.0195945
0.0246619
0.029929
0.035299
0.0406697
0.0459357
0.0509895
0.0557236
0.0600333
0.0638187
0.0669877
0.0694587
0.071163
0.0720474
0.0720756
0.0712295
0.0695089
0.0669273
0.0635104
0.059334
0.0544896
0.0484778
0.0407616
0.0276906
0.0187883
0.0120715
0.00686286
0.00250524
-0.000963177
-0.00351848
-0.00518756
-0.00599944
-0.0059842
-0.00517687
-0.00361778
-0.00135261
0.00156727
0.00508453
0.00913545
0.0136497
0.0185502
0.0237528
0.0291671
0.0346961
0.0402376
0.0456848
0.0509283
0.0558573
0.0603624
0.0643374
0.0676829
0.0703079
0.0721335
0.0730947
0.0731424
0.0722451
0.0703893
0.0675747
0.0638142
0.0591786
0.0537581
0.0469754
0.0382204
0.0284173
0.0185267
0.011093
0.0053621
0.000594365
-0.00317842
-0.00594148
-0.00773647
-0.00860616
-0.00859265
-0.00774134
-0.00610111
-0.00372442
-0.000667691
0.00300808
0.00723679
0.0119466
0.0170597
0.0224914
0.0281506
0.0339398
0.039755
0.0454875
0.0510242
0.0562498
0.0610485
0.0653065
0.0689149
0.0717721
0.073787
0.0748814
0.0749927
0.0740754
0.0721025
0.069061
0.0649531
0.0598471
0.0538361
0.0462679
0.036463
0.0280096
0.0171344
0.00898583
0.00273466
-0.00243924
-0.00650885
-0.00946707
-0.0113691
-0.0122707
-0.0122253
-0.0112885
-0.00951774
-0.00697232
-0.00371408
0.000191964
0.00467682
0.00966671
0.0150822
0.0208378
0.0268409
0.0329926
0.0391867
0.0453111
0.0512484
0.0568772
0.0620743
0.0667167
0.0706843
0.073863
0.076148
0.0774463
0.07768
0.0767889
0.0747318
0.0714834
0.0670357
0.0614564
0.0548437
0.0464715
0.0355902
0.0263418
0.0144761
0.00561205
-0.00115497
-0.00672557
-0.0110768
-0.0142085
-0.0161891
-0.017087
-0.0169671
-0.0158951
-0.013937
-0.0111595
-0.00763004
-0.00341793
0.00140459
0.00676138
0.0125713
0.0187471
0.0251951
0.0318138
0.0384945
0.0451213
0.0515713
0.0577165
0.0634246
0.0685621
0.0729962
0.0765987
0.0792486
0.0808364
0.0812671
0.0804639
0.0783705
0.0749483
0.070179
0.0641304
0.0569071
0.0477065
0.0357071
0.0232834
0.0104119
0.000828499
-0.00644848
-0.0124018
-0.0170125
-0.0202877
-0.0223091
-0.0231582
-0.0229118
-0.0216461
-0.0194364
-0.0163567
-0.0124806
-0.00788197
-0.00263657
0.00317699
0.00947566
0.0161707
0.0231664
0.0303594
0.037638
0.0448819
0.0519626
0.0587442
0.0650848
0.0708389
0.0758594
0.0800018
0.0831272
0.0851069
0.0858264
0.0851898
0.0831237
0.0795745
0.0745123
0.0680049
0.0601634
0.0501044
0.0369305
0.0186939
0.00479282
-0.00551708
-0.0132969
-0.0196146
-0.0244559
-0.0278359
-0.0298507
-0.0305959
-0.0301611
-0.0286339
-0.0260995
-0.0226401
-0.0183356
-0.0132649
-0.00750718
-0.00114359
0.00574104
0.0130565
0.0207057
0.0285832
0.0365745
0.0445551
0.0523903
0.0599364
0.0670407
0.0735446
0.0792852
0.0840996
0.0878284
0.0903209
0.0914399
0.0910676
0.08911
0.0854955
0.080181
0.0732324
0.0647671
0.0538143
0.0393951
0.0124199
-0.00254298
-0.0135897
-0.0218638
-0.0285228
-0.0335584
-0.0369949
-0.0389449
-0.0395197
-0.0388234
-0.0369563
-0.0340147
-0.0300895
-0.0252678
-0.0196335
-0.0132693
-0.00625876
0.00131199
0.00935179
0.0177626
0.0264377
0.0352601
0.0441015
0.0528216
0.0612681
0.0692777
0.0766773
0.0832868
0.0889226
0.0934021
0.0965493
0.0982005
0.0982114
0.0964634
0.0928633
0.0873504
0.0799871
0.0708957
0.0590089
0.04326
0.0042918
-0.0117741
-0.023571
-0.0323287
-0.0393001
-0.0444845
-0.047918
-0.0497322
-0.0500568
-0.0490126
-0.0467149
-0.0432721
-0.0387855
-0.0333495
-0.0270535
-0.0199837
-0.0122252
-0.00386523
0.0050051
0.0142878
0.0238758
0.0336509
0.0434816
0.0532228
0.0627141
0.071781
0.0802356
0.0878789
0.0945047
0.0999039
0.103871
0.106212
0.10675
0.105337
0.101851
0.096211
0.0884708
0.0787556
0.0658913
0.0487147
-0.00588015
-0.0230999
-0.0356633
-0.0448909
-0.0521379
-0.0574143
-0.060771
-0.0623626
-0.0623408
-0.0608464
-0.0580122
-0.0539612
-0.0488058
-0.042649
-0.0355858
-0.0277053
-0.0190942
-0.0098391
-3.01494e-05
0.0102362
0.0208541
0.0317055
0.0426576
0.0535611
0.064249
0.0745357
0.0842181
0.0930774
0.100882
0.107394
0.112374
0.11559
0.116829
0.115903
0.112659
0.106983
0.0989187
0.0885895
0.0747014
0.0559858
-0.0183093
-0.0367456
-0.0500947
-0.0597737
-0.0672492
-0.0725455
-0.0757334
-0.0769953
-0.0765103
-0.0744436
-0.0709487
-0.066166
-0.0602209
-0.0532258
-0.0452811
-0.0364791
-0.0269064
-0.0166482
-0.00579146
0.00557068
0.0173357
0.0293878
0.0415951
0.0538063
0.0658488
0.0775274
0.088624
0.0988991
0.108094
0.115939
0.122153
0.126464
0.128611
0.128362
0.125516
0.119923
0.111607
0.100684
0.0857248
0.0653449
-0.0332379
-0.0529682
-0.0671258
-0.0772307
-0.0848731
-0.090097
-0.0929994
-0.0937983
-0.092707
-0.0899205
-0.0856182
-0.0799605
-0.0730884
-0.0651243
-0.0561746
-0.0463335
-0.0356866
-0.0243154
-0.0123019
0.000266992
0.0132947
0.0266709
0.0402671
0.0539329
0.0674927
0.0807435
0.0934532
0.105362
0.116182
0.125607
0.133313
0.138977
0.142281
0.142937
0.140687
0.13533
0.12686
0.115379
0.0993024
0.0771173
-0.0509442
-0.0720652
-0.0870577
-0.0975527
-0.10528
-0.110311
-0.112779
-0.112947
-0.111072
-0.107387
-0.102102
-0.095402
-0.0874458
-0.078367
-0.0682778
-0.0572732
-0.0454359
-0.0328414
-0.0195636
-0.00568026
0.00872189
0.0235414
0.0386573
0.0539236
0.0691652
0.0841743
0.0987072
0.112484
0.125188
0.136473
0.145966
0.153284
0.158045
0.159886
0.158479
0.153555
0.145062
0.13308
0.115842
0.091694
-0.0717518
-0.0943863
-0.110244
-0.121077
-0.128778
-0.133458
-0.135299
-0.134623
-0.131744
-0.12694
-0.120461
-0.112522
-0.103302
-0.0929451
-0.08157
-0.0692706
-0.056124
-0.0421967
-0.027551
-0.0122511
0.00363019
0.0200051
0.0367647
0.0537725
0.0708588
0.087815
0.104389
0.120284
0.135154
0.148612
0.16023
0.169557
0.17613
0.1795
0.179245
0.175007
0.166671
0.154273
0.135837
0.109546
-0.0960437
-0.120349
-0.137105
-0.148203
-0.155725
-0.159842
-0.160803
-0.15901
-0.154847
-0.148654
-0.140728
-0.131318
-0.120625
-0.108808
-0.095988
-0.0822557
-0.0676797
-0.0523132
-0.0362022
-0.0193928
-0.00193855
0.0160922
0.0346084
0.0534893
0.0725764
0.0916666
0.110505
0.128781
0.146123
0.162101
0.176229
0.187977
0.19679
0.202109
0.203395
0.200171
0.192231
0.179544
0.159882
0.131242
-0.124283
-0.150464
-0.168152
-0.179403
-0.186534
-0.189801
-0.189549
-0.186286
-0.180489
-0.172572
-0.162892
-0.151737
-0.139333
-0.125852
-0.111415
-0.0961064
-0.0799816
-0.0630753
-0.0454119
-0.0270133
-0.00790737
0.0118631
0.0322324
0.0531025
0.0743341
0.0957373
0.117062
0.137991
0.158131
0.177011
0.194085
0.208736
0.220299
0.228083
0.2314
0.229617
0.222397
0.209606
0.188705
0.157478
-0.15704
-0.185364
-0.204018
-0.215254
-0.221694
-0.223719
-0.221811
-0.216619
-0.208742
-0.198689
-0.186884
-0.173662
-0.159275
-0.143904
-0.127667
-0.110637
-0.0928482
-0.0743118
-0.0550234
-0.034974
-0.0141588
0.00741293
0.0297085
0.0526617
0.0761619
0.100042
0.124068
0.147924
0.171204
0.193403
0.213912
0.232025
0.246948
0.257834
0.263804
0.264018
0.257958
0.245332
0.223208
0.189109
-0.19504
-0.225859
-0.245497
-0.256461
-0.261779
-0.262021
-0.257865
-0.25015
-0.23963
-0.226932
-0.212558
-0.196895
-0.180218
-0.162711
-0.144484
-0.125587
-0.10603
-0.0857889
-0.0648236
-0.0430862
-0.0205313
0.00287378
0.0271386
0.0522388
0.0781033
0.104601
0.131525
0.158576
0.185349
0.211314
0.235807
0.258026
0.277039
0.29181
0.301224
0.304172
0.299875
0.287805
0.264514
0.227201
-0.239227
-0.273005
-0.293611
-0.303903
-0.307474
-0.305183
-0.297983
-0.28697
-0.273098
-0.257132
-0.239666
-0.221132
-0.201825
-0.181922
-0.161513
-0.140617
-0.119203
-0.0972063
-0.0745404
-0.0511098
-0.0268195
-0.00158595
0.0246526
0.0519245
0.0802112
0.109432
0.139423
0.169923
0.200543
0.230745
0.259825
0.286891
0.310862
0.330486
0.34436
0.351019
0.349321
0.338381
0.314055
0.273108
-0.290867
-0.328213
-0.349692
-0.358682
-0.359589
-0.353713
-0.3424
-0.327088
-0.308976
-0.288993
-0.267823
-0.245939
-0.223639
-0.201077
-0.178306
-0.155297
-0.131968
-0.108198
-0.0838456
-0.058757
-0.0327789
-0.00576737
0.0224018
0.0518214
0.0825393
0.114541
0.14773
0.181899
0.216705
0.251631
0.285954
0.318708
0.348669
0.374344
0.39398
0.40566
0.407737
0.398786
0.373686
0.32858
-0.351716
-0.393419
-0.415512
-0.422189
-0.419073
-0.408136
-0.391277
-0.370377
-0.346932
-0.322044
-0.296479
-0.270728
-0.245064
-0.219595
-0.19431
-0.169113
-0.143853
-0.11834
-0.0923641
-0.0657037
-0.0381378
-0.00945331
0.0205463
0.0520303
0.0851273
0.119908
0.156364
0.194375
0.233676
0.273808
0.314069
0.353458
0.390623
0.423824
0.450907
0.469378
0.4769
0.471242
0.445861
0.395949
-0.424292
-0.471344
-0.493453
-0.496177
-0.487011
-0.468938
-0.444621
-0.416496
-0.386395
-0.355582
-0.32487
-0.294724
-0.26535
-0.236768
-0.208873
-0.181475
-0.154331
-0.127167
-0.0996916
-0.0716072
-0.0426163
-0.0124279
0.0192354
0.0526301
0.0879801
0.125461
0.165176
0.207128
0.251172
0.296961
0.343874
0.390934
0.436715
0.479251
0.515952
0.543622
0.558995
0.558649
0.533911
0.47842
-0.512358
-0.56591
-0.58675
-0.582834
-0.564576
-0.536459
-0.50216
-0.464775
-0.426466
-0.388605
-0.351978
-0.316947
-0.283586
-0.251771
-0.221258
-0.191733
-0.162837
-0.134194
-0.105422
-0.0761348
-0.0459537
-0.0145039
0.01858
0.0536503
0.0910388
0.131044
0.173911
0.2198
0.268739
0.320563
0.374816
0.430643
0.486642
0.540702
0.589809
0.62996
0.656684
0.664834
0.64248
0.580589
-0.621778
-0.682892
-0.699804
-0.684808
-0.652894
-0.610696
-0.56315
-0.514046
-0.465792
-0.419731
-0.376484
-0.336194
-0.298703
-0.263673
-0.23067
-0.199213
-0.168808
-0.138959
-0.109182
-0.0789986
-0.0479436
-0.0155563
0.0186198
0.0550383
0.0941484
0.136388
0.182167
0.231847
0.285687
0.343786
0.405971
0.471651
0.539619
0.607788
0.672836
0.72993
0.773129
0.79486
0.778207
0.709365
-0.762166
-0.830974
-0.838543
-0.805124
-0.752755
-0.690962
-0.626069
-0.562421
-0.50242
-0.447116
-0.39674
-0.351041
-0.309502
-0.271482
-0.236296
-0.203264
-0.171729
-0.141064
-0.110677
-0.0799967
-0.0484723