/*--------------------------------*- C++ -*----------------------------------*\
| =========                 |                                                 |
| \\      /  F ield         | OpenFOAM: The Open Source CFD Toolbox           |
|  \\    /   O peration     | Version:  v1812                                 |
|   \\  /    A nd           | Web:      www.OpenFOAM.com                      |
|    \\/     M anipulation  |                                                 |
\*---------------------------------------------------------------------------*/
FoamFile
{
    version     2.0;
    format      ascii;
    class       surfaceScalarField;
    location    "0.5";
    object      phi;
}
// * * * * * * * * * * * * * * * * * * * * * * * * * * * * * * * * * * * * * //

dimensions      [0 3 -1 0 0 0 0];
oriented        oriented;


internalField   nonuniform List<scalar> 
7840
(
1.2636e-09
-1.2819e-09
-2.0162e-12
2.04572e-09
-7.81515e-10
-6.16839e-13
1.12438e-09
9.21552e-10
-2.21106e-13
-1.77869e-09
2.90319e-09
-1.35701e-13
-6.56944e-09
4.79082e-09
-8.54099e-14
-1.29935e-08
6.42415e-09
-5.52174e-14
-2.07311e-08
7.73763e-09
-3.77945e-14
-2.9444e-08
8.71285e-09
-2.66276e-14
-3.87981e-08
9.35418e-09
-1.9045e-14
-4.84752e-08
9.67712e-09
-1.39733e-14
-5.81781e-08
9.70288e-09
-1.0611e-14
-6.76337e-08
9.45562e-09
-8.17422e-15
-7.65947e-08
8.96096e-09
-6.12331e-15
-8.48399e-08
8.24523e-09
-4.35403e-15
-9.2175e-08
7.33509e-09
-3.05002e-15
-9.84323e-08
6.2574e-09
-2.31187e-15
-1.03472e-07
5.03929e-09
-1.94229e-15
-1.0718e-07
3.70829e-09
-1.58799e-15
-1.09472e-07
2.29253e-09
-1.05491e-15
-1.10293e-07
8.20928e-10
-4.63387e-16
-1.09617e-07
-6.76604e-10
-1.01735e-16
-1.07448e-07
-2.16902e-09
-1.38641e-16
-1.03824e-07
-3.6241e-09
-4.44236e-16
-9.88152e-08
-5.00851e-09
-6.78494e-16
-9.25272e-08
-6.28806e-09
-5.27112e-16
-8.50992e-08
-7.42801e-09
2.8717e-17
-7.67056e-08
-8.39358e-09
6.24557e-16
-6.7555e-08
-9.15059e-09
7.26827e-16
-5.78888e-08
-9.66623e-09
9.1149e-17
-4.79789e-08
-9.90996e-09
-8.51759e-16
-3.81243e-08
-9.85464e-09
-1.24112e-15
-2.86465e-08
-9.47788e-09
-6.01272e-16
-1.98825e-08
-8.76386e-09
4.79554e-16
-1.21764e-08
-7.70604e-09
9.19379e-16
-5.8642e-09
-6.31222e-09
4.7767e-16
-1.249e-09
-4.61536e-09
1.7928e-16
1.44752e-09
-2.69668e-09
7.40096e-16
2.17894e-09
-7.31419e-10
3.25485e-16
1.28228e-09
8.96856e-10
-3.86949e-15
1.2825e-09
-1.09327e-14
8.03179e-10
-2.08448e-09
-6.16679e-13
-5.97199e-10
6.19225e-10
-4.00926e-13
-5.87212e-09
6.19669e-09
-2.48892e-13
-1.55519e-08
1.25831e-08
-1.69093e-13
-2.95374e-08
1.87765e-08
-1.11897e-13
-4.73574e-08
2.42442e-08
-7.5116e-14
-6.83375e-08
2.87177e-08
-5.22239e-14
-9.17079e-08
3.20833e-08
-3.70679e-14
-1.16669e-07
3.43154e-08
-2.64375e-14
-1.4243e-07
3.54385e-08
-1.89224e-14
-1.68235e-07
3.55074e-08
-1.38103e-14
-1.93374e-07
3.45948e-08
-1.04433e-14
-2.17197e-07
3.27841e-08
-8.07094e-15
-2.39118e-07
3.01656e-08
-6.11423e-15
-2.58616e-07
2.68334e-08
-4.40447e-15
-2.75243e-07
2.28849e-08
-3.0857e-15
-2.88624e-07
1.84196e-08
-2.29075e-15
-2.98455e-07
1.35396e-08
-1.9094e-15
-3.04512e-07
8.34953e-09
-1.6451e-15
-3.06649e-07
2.95742e-09
-1.24266e-15
-3.048e-07
-2.52536e-09
-6.73394e-16
-2.98985e-07
-7.98365e-09
-1.36378e-16
-2.89311e-07
-1.32986e-08
8.50986e-17
-2.75971e-07
-1.83483e-08
-1.52333e-16
-2.59251e-07
-2.30081e-08
-6.72386e-16
-2.39526e-07
-2.7153e-08
-1.01436e-15
-2.17261e-07
-3.06586e-08
-7.28019e-16
-1.93007e-07
-3.34045e-08
1.46946e-16
-1.67396e-07
-3.52771e-08
9.3716e-16
-1.41133e-07
-3.61732e-08
8.09339e-16
-1.14982e-07
-3.60052e-08
-3.19321e-16
-8.97537e-08
-3.47068e-08
-1.54904e-15
-6.62769e-08
-3.22408e-08
-1.9256e-15
-4.53716e-08
-2.86112e-08
-1.37753e-15
-2.78014e-08
-2.38822e-08
-4.51307e-16
-1.42045e-08
-1.82121e-08
9.71772e-16
-4.98593e-09
-1.19153e-08
3.53829e-15
-1.53457e-10
-5.56416e-09
4.7686e-15
9.25354e-10
-1.82196e-10
-1.83876e-16
2.20794e-09
-1.53265e-14
-8.35974e-10
-1.2483e-09
-2.20856e-13
-6.06523e-09
5.84869e-09
-2.48917e-13
-1.70547e-08
1.71863e-08
-1.96556e-13
-3.42364e-08
2.97649e-08
-1.43498e-13
-5.74044e-08
4.19445e-08
-1.01487e-13
-8.5916e-08
5.27558e-08
-7.18074e-14
-1.18855e-07
6.16562e-08
-5.15572e-14
-1.55152e-07
6.83806e-08
-3.75333e-14
-1.93673e-07
7.28368e-08
-2.74109e-14
-2.33277e-07
7.50419e-08
-1.98598e-14
-2.72852e-07
7.50828e-08
-1.43342e-14
-3.11349e-07
7.30914e-08
-1.0553e-14
-3.47793e-07
6.92286e-08
-8.07166e-15
-3.81302e-07
6.36744e-08
-6.28906e-15
-4.1109e-07
5.66215e-08
-4.7552e-15
-4.36477e-07
4.82717e-08
-3.38702e-15
-4.56891e-07
3.88339e-08
-2.35091e-15
-4.71875e-07
2.85237e-08
-1.77845e-15
-4.81089e-07
1.7563e-08
-1.57195e-15
-4.84312e-07
6.18096e-09
-1.45614e-15
-4.81451e-07
-5.38634e-09
-1.16771e-15
-4.7254e-07
-1.68953e-08
-6.38129e-16
-4.57743e-07
-2.80953e-08
-4.96544e-17
-4.37361e-07
-3.87302e-08
2.46571e-16
-4.11829e-07
-4.85401e-08
-1.13432e-17
-3.81717e-07
-5.72648e-08
-6.9387e-16
-3.47728e-07
-6.4648e-08
-1.23841e-15
-3.10689e-07
-7.04432e-08
-1.03616e-15
-2.71546e-07
-7.44206e-08
-6.7599e-17
-2.31343e-07
-7.63758e-08
9.22392e-16
-1.91208e-07
-7.61403e-08
1.02827e-15
-1.5232e-07
-7.35944e-08
1.29767e-16
-1.15876e-07
-6.86852e-08
-1.08558e-15
-8.30374e-08
-6.145e-08
-2.1168e-15
-5.48662e-08
-5.20534e-08
-2.87245e-15
-3.22339e-08
-4.08442e-08
-2.57604e-15
-1.56991e-08
-2.84499e-08
8.16562e-16
-5.35061e-09
-1.59127e-08
6.13804e-15
-6.20201e-10
-4.9128e-09
7.41347e-15
1.58768e-09
-5.83095e-15
-2.78507e-09
1.5369e-09
-1.35187e-13
-1.24923e-08
1.5556e-08
-1.69007e-13
-2.98489e-08
3.45431e-08
-1.43637e-13
-5.49429e-08
5.48589e-08
-1.12011e-13
-8.7329e-08
7.43307e-08
-8.44291e-14
-1.26154e-07
9.15807e-08
-6.26592e-14
-1.70281e-07
1.05784e-07
-4.64159e-14
-2.18402e-07
1.16502e-07
-3.46717e-14
-2.69123e-07
1.23557e-07
-2.607e-14
-3.21027e-07
1.26946e-07
-1.94733e-14
-3.72731e-07
1.26787e-07
-1.43108e-14
-4.22913e-07
1.23274e-07
-1.04616e-14
-4.70345e-07
1.1666e-07
-7.83204e-15
-5.13903e-07
1.07233e-07
-6.08436e-15
-5.52589e-07
9.5307e-08
-4.75972e-15
-5.85533e-07
8.12157e-08
-3.56276e-15
-6.12006e-07
6.53067e-08
-2.50001e-15
-6.31423e-07
4.79406e-08
-1.73539e-15
-6.43349e-07
2.94899e-08
-1.36728e-15
-6.47507e-07
1.03391e-08
-1.29932e-15
-6.43779e-07
-9.11526e-09
-1.29359e-15
-6.32209e-07
-2.84648e-08
-1.10709e-15
-6.13014e-07
-4.72908e-08
-6.45652e-16
-5.86578e-07
-6.51659e-08
-5.87772e-17
-5.5346e-07
-8.16584e-08
2.79411e-16
-5.14386e-07
-9.63379e-08
3.91333e-17
-4.70252e-07
-1.08783e-07
-6.92456e-16
-4.22106e-07
-1.18589e-07
-1.34051e-15
-3.71143e-07
-1.25384e-07
-1.27779e-15
-3.18677e-07
-1.28842e-07
-4.55574e-16
-2.66119e-07
-1.28698e-07
5.37002e-16
-2.14939e-07
-1.24774e-07
1.08554e-15
-1.66618e-07
-1.17006e-07
1.01826e-15
-1.22587e-07
-1.05481e-07
1.72416e-16
-8.41538e-08
-9.04871e-08
-1.90706e-15
-5.24062e-08
-7.25918e-08
-4.68892e-15
-2.81032e-08
-5.27526e-08
-4.79155e-15
-1.15523e-08
-3.24635e-08
3.19338e-16
-2.49316e-09
-1.39719e-08
7.38278e-15
-9.05597e-10
3.22885e-15
-4.73489e-09
6.27185e-09
-8.47422e-14
-1.909e-08
2.99112e-08
-1.11498e-13
-4.30446e-08
5.84978e-08
-1.01617e-13
-7.62052e-08
8.80196e-08
-8.47548e-14
-1.17787e-07
1.15913e-07
-6.76796e-14
-1.66671e-07
1.40465e-07
-5.24622e-14
-2.21488e-07
1.60601e-07
-3.99848e-14
-2.80705e-07
1.75718e-07
-3.04366e-14
-3.42703e-07
1.85555e-07
-2.33673e-14
-4.05842e-07
1.90086e-07
-1.7992e-14
-4.68516e-07
1.8946e-07
-1.36735e-14
-5.29187e-07
1.83945e-07
-1.01875e-14
-5.86419e-07
1.73892e-07
-7.56806e-15
-6.389e-07
1.59714e-07
-5.77851e-15
-6.85457e-07
1.41864e-07
-4.55773e-15
-7.25071e-07
1.2083e-07
-3.57719e-15
-7.56884e-07
9.71196e-08
-2.6551e-15
-7.80209e-07
7.12654e-08
-1.8343e-15
-7.94535e-07
4.38164e-08
-1.25629e-15
-7.99537e-07
1.53403e-08
-1.01046e-15
-7.95074e-07
-1.35777e-08
-1.03828e-15
-7.81204e-07
-4.23356e-08
-1.14632e-15
-7.58178e-07
-7.03168e-08
-1.08452e-15
-7.2645e-07
-9.68937e-08
-7.02731e-16
-6.86674e-07
-1.21434e-07
-1.04564e-16
-6.39704e-07
-1.43308e-07
3.14503e-16
-5.86585e-07
-1.61902e-07
1.58825e-16
-5.28543e-07
-1.7663e-07
-5.50344e-16
-4.66972e-07
-1.86956e-07
-1.30116e-15
-4.03403e-07
-1.92411e-07
-1.54397e-15
-3.39476e-07
-1.92624e-07
-1.11284e-15
-2.769e-07
-1.87351e-07
-1.779e-16
-2.17393e-07
-1.76513e-07
1.13399e-15
-1.62624e-07
-1.6025e-07
2.28472e-15
-1.14132e-07
-1.38979e-07
1.77566e-15
-7.3244e-08
-1.1348e-07
-1.6413e-15
-4.09769e-08
-8.50197e-08
-5.84493e-15
-1.79596e-08
-5.54807e-08
-5.59915e-15
-4.37808e-09
-2.75533e-08
1.1469e-15
-5.28372e-09
5.3211e-15
-6.58218e-09
1.28541e-08
-5.46042e-14
-2.55171e-08
4.88462e-08
-7.43341e-14
-5.6054e-08
8.90347e-08
-7.15872e-14
-9.72631e-08
1.29229e-07
-6.30372e-14
-1.47957e-07
1.66606e-07
-5.29064e-14
-2.06702e-07
1.9921e-07
-4.28306e-14
-2.7187e-07
2.25768e-07
-3.37067e-14
-3.41697e-07
2.45546e-07
-2.61346e-14
-4.14355e-07
2.58212e-07
-2.02896e-14
-4.88004e-07
2.63735e-07
-1.5892e-14
-5.60846e-07
2.62303e-07
-1.24379e-14
-6.31165e-07
2.54264e-07
-9.56749e-15
-6.97356e-07
2.40084e-07
-7.22388e-15
-7.57954e-07
2.20311e-07
-5.47683e-15
-8.11646e-07
1.95557e-07
-4.28783e-15
-8.57293e-07
1.66476e-07
-3.44349e-15
-8.93934e-07
1.33761e-07
-2.71287e-15
-9.20799e-07
9.8131e-08
-1.9925e-15
-9.37318e-07
6.03349e-08
-1.34292e-15
-9.43122e-07
2.11446e-08
-8.87906e-16
-9.38056e-07
-1.8644e-08
-7.17122e-16
-9.22179e-07
-5.82127e-08
-8.06307e-16
-8.95771e-07
-9.67243e-08
-9.95233e-16
-8.59337e-07
-1.33328e-07
-1.03119e-15
-8.13605e-07
-1.67166e-07
-7.32252e-16
-7.59524e-07
-1.97389e-07
-1.65279e-16
-6.9826e-07
-2.23166e-07
3.09511e-16
-6.31181e-07
-2.4371e-07
3.16353e-16
-5.5984e-07
-2.58297e-07
-1.98687e-16
-4.85948e-07
-2.66303e-07
-9.56361e-16
-4.11342e-07
-2.67231e-07
-1.65363e-15
-3.37934e-07
-2.60758e-07
-1.93213e-15
-2.67663e-07
-2.46784e-07
-1.19163e-15
-2.02427e-07
-2.25486e-07
9.4505e-16
-1.44009e-07
-1.97397e-07
3.30512e-15
-9.40013e-08
-1.63488e-07
2.96375e-15
-5.37363e-08
-1.25285e-07
-1.25977e-15
-2.4229e-08
-8.4988e-08
-5.49858e-15
-6.16868e-09
-4.56135e-08
-4.11354e-15
-1.14524e-08
1.57203e-15
-8.30655e-09
2.11606e-08
-3.74681e-14
-3.16598e-08
7.21994e-08
-5.13385e-14
-6.86453e-08
1.2602e-07
-5.09061e-14
-1.17791e-07
1.78374e-07
-4.64401e-14
-1.77474e-07
2.2629e-07
-4.04862e-14
-2.45912e-07
2.67649e-07
-3.4107e-14
-3.21191e-07
3.01046e-07
-2.78553e-14
-4.01303e-07
3.25658e-07
-2.21778e-14
-4.84208e-07
3.41117e-07
-1.74398e-14
-5.67878e-07
3.47405e-07
-1.37573e-14
-6.50344e-07
3.44768e-07
-1.09276e-14
-7.29731e-07
3.33652e-07
-8.62956e-15
-8.04297e-07
3.14649e-07
-6.68231e-15
-8.72447e-07
2.88461e-07
-5.11098e-15
-9.32758e-07
2.55868e-07
-3.97122e-15
-9.83992e-07
2.17711e-07
-3.20371e-15
-1.02511e-06
1.74877e-07
-2.62794e-15
-1.05527e-06
1.28294e-07
-2.08327e-15
-1.07386e-06
7.89226e-08
-1.51743e-15
-1.08047e-06
2.77555e-08
-9.96268e-16
-1.07493e-06
-2.4184e-08
-6.2706e-16
-1.0573e-06
-7.58446e-08
-4.97932e-16
-1.02787e-06
-1.26151e-07
-6.09713e-16
-9.87189e-07
-1.74011e-07
-8.3643e-16
-9.36031e-07
-2.18324e-07
-9.51091e-16
-8.75422e-07
-2.57998e-07
-7.74109e-16
-8.06618e-07
-2.9197e-07
-3.21577e-16
-7.31102e-07
-3.19226e-07
1.83147e-16
-6.50559e-07
-3.3884e-07
4.77677e-16
-5.66856e-07
-3.50007e-07
3.69473e-16
-4.81999e-07
-3.52087e-07
-3.15916e-16
-3.98097e-07
-3.4466e-07
-1.58862e-15
-3.17302e-07
-3.27579e-07
-2.74931e-15
-2.41745e-07
-3.01043e-07
-2.26344e-15
-1.73476e-07
-2.65666e-07
5.4534e-16
-1.14389e-07
-2.22574e-07
3.60488e-15
-6.61692e-08
-1.73505e-07
3.26419e-15
-3.0254e-08
-1.20903e-07
-7.67728e-16
-7.84542e-09
-6.8022e-08
-3.93265e-15
-1.92977e-08
-2.18462e-15
-9.9225e-09
3.10831e-08
-2.65594e-14
-3.75199e-08
9.97969e-08
-3.6498e-14
-8.07861e-08
1.69286e-07
-3.67944e-14
-1.37723e-07
2.35311e-07
-3.43066e-14
-2.06263e-07
2.94829e-07
-3.06071e-14
-2.84252e-07
3.45638e-07
-2.6526e-14
-3.69466e-07
3.8626e-07
-2.24111e-14
-4.59641e-07
4.15834e-07
-1.84508e-14
-5.52517e-07
4.33994e-07
-1.48564e-14
-6.4588e-07
4.40768e-07
-1.18512e-14
-7.37598e-07
4.36486e-07
-9.48703e-15
-8.25658e-07
4.21711e-07
-7.60327e-15
-9.08192e-07
3.97184e-07
-6.01267e-15
-9.83502e-07
3.63771e-07
-4.65759e-15
-1.05007e-06
3.2244e-07
-3.60237e-15
-1.10659e-06
2.74229e-07
-2.87689e-15
-1.15195e-06
2.20236e-07
-2.40242e-15
-1.18526e-06
1.61605e-07
-2.02211e-15
-1.20586e-06
9.9522e-08
-1.62209e-15
-1.21332e-06
3.52123e-08
-1.18174e-15
-1.20744e-06
-3.00623e-08
-7.66682e-16
-1.18828e-06
-9.50056e-08
-4.67154e-16
-1.15614e-06
-1.58292e-07
-3.58656e-16
-1.11158e-06
-2.18572e-07
-4.52135e-16
-1.05541e-06
-2.7449e-07
-6.66694e-16
-9.88715e-07
-3.24695e-07
-8.48057e-16
-9.12816e-07
-3.67868e-07
-8.5889e-16
-8.29287e-07
-4.02755e-07
-6.24596e-16
-7.39926e-07
-4.282e-07
-1.20263e-16
-6.46735e-07
-4.43198e-07
5.7154e-16
-5.51884e-07
-4.46939e-07
1.02008e-15
-4.57668e-07
-4.38876e-07
4.63954e-16
-3.66458e-07
-4.1879e-07
-1.37309e-15
-2.80638e-07
-3.86863e-07
-3.28119e-15
-2.02543e-07
-3.43761e-07
-2.98467e-15
-1.344e-07
-2.90717e-07
6.54816e-17
-7.82766e-08
-2.29629e-07
3.11589e-15
-3.60517e-08
-1.63128e-07
2.73631e-15
-9.42661e-09
-9.46471e-08
-4.71323e-16
-2.87243e-08
-2.50088e-15
-1.14562e-08
4.25392e-08
-1.89322e-14
-4.31503e-08
1.31491e-07
-2.63152e-14
-9.25435e-08
2.1868e-07
-2.7026e-14
-1.57135e-07
2.99903e-07
-2.56839e-14
-2.34412e-07
3.72106e-07
-2.32454e-14
-3.21836e-07
4.33062e-07
-2.04232e-14
-4.16857e-07
4.81281e-07
-1.76141e-14
-5.1694e-07
5.15917e-07
-1.4921e-14
-6.19598e-07
5.36652e-07
-1.23712e-14
-7.22428e-07
5.43597e-07
-1.00857e-14
-8.2314e-07
5.37198e-07
-8.18656e-15
-9.19593e-07
5.18164e-07
-6.65647e-15
-1.00981e-06
4.87402e-07
-5.36152e-15
-1.09201e-06
4.45965e-07
-4.21534e-15
-1.16459e-06
3.95022e-07
-3.24354e-15
-1.22618e-06
3.35823e-07
-2.52939e-15
-1.27563e-06
2.69685e-07
-2.08193e-15
-1.31201e-06
1.97979e-07
-1.80907e-15
-1.33461e-06
1.22124e-07
-1.56938e-15
-1.34298e-06
4.35836e-08
-1.27987e-15
-1.33691e-06
-3.61339e-08
-9.4423e-16
-1.31643e-06
-1.1548e-07
-6.2882e-16
-1.28185e-06
-1.92871e-07
-3.99492e-16
-1.23373e-06
-2.66693e-07
-2.94703e-16
-1.17291e-06
-3.35317e-07
-3.17182e-16
-1.10048e-06
-3.97122e-07
-4.55776e-16
-1.01783e-06
-4.50517e-07
-6.92595e-16
-9.26603e-07
-4.93983e-07
-9.61548e-16
-8.28691e-07
-5.26113e-07
-1.03827e-15
-7.26219e-07
-5.45669e-07
-5.65687e-16
-6.21513e-07
-5.51644e-07
5.50181e-16
-5.17059e-07
-5.4333e-07
1.55617e-15
-4.15454e-07
-5.20395e-07
1.13498e-15
-3.19352e-07
-4.82966e-07
-1.06288e-15
-2.31399e-07
-4.31713e-07
-3.31783e-15
-1.54181e-07
-3.67935e-07
-3.10964e-15
-9.01701e-08
-2.93639e-07
-3.12989e-16
-4.16963e-08
-2.11602e-07
2.13751e-15
-1.09445e-08
-1.25399e-07
1.84582e-15
-3.96687e-08
-4.48517e-16
-1.29355e-08
5.54747e-08
-1.35371e-14
-4.86215e-08
1.67177e-07
-1.89902e-14
-1.04028e-07
2.74086e-07
-1.99169e-14
-1.76171e-07
3.72046e-07
-1.94103e-14
-2.62093e-07
4.58029e-07
-1.7893e-14
-3.58866e-07
5.29834e-07
-1.58707e-14
-4.636e-07
5.86016e-07
-1.37925e-14
-5.73479e-07
6.25795e-07
-1.18518e-14
-6.8578e-07
6.48953e-07
-1.00361e-14
-7.97908e-07
6.55725e-07
-8.36239e-15
-9.07422e-07
6.46713e-07
-6.9216e-15
-1.01206e-06
6.22799e-07
-5.74553e-15
-1.10974e-06
5.85085e-07
-4.75589e-15
-1.19861e-06
5.34833e-07
-3.84147e-15
-1.27701e-06
4.73427e-07
-2.98631e-15
-1.34353e-06
4.02342e-07
-2.2678e-15
-1.39697e-06
3.23123e-07
-1.77896e-15
-1.43636e-06
2.37374e-07
-1.51609e-15
-1.46099e-06
1.46751e-07
-1.37752e-15
-1.47037e-06
5.29612e-08
-1.23147e-15
-1.46426e-06
-4.22408e-08
-1.0207e-15
-1.44269e-06
-1.37051e-07
-7.76688e-16
-1.40594e-06
-2.29622e-07
-5.68182e-16
-1.35456e-06
-3.18069e-07
-4.18948e-16
-1.28939e-06
-4.00485e-07
-2.97893e-16
-1.21155e-06
-4.74961e-07
-1.87784e-16
-1.12245e-06
-5.39618e-07
-1.84392e-16
-1.02379e-06
-5.9265e-07
-4.63551e-16
-9.17527e-07
-6.32371e-07
-1.03109e-15
-8.05916e-07
-6.5728e-07
-1.4599e-15
-6.9143e-07
-6.66131e-07
-1.03136e-15
-5.76746e-07
-6.58013e-07
4.13362e-16
-4.64701e-07
-6.32439e-07
1.80117e-15
-3.58235e-07
-5.89432e-07
1.48227e-15
-2.60331e-07
-5.29618e-07
-7.39969e-16
-1.73957e-07
-4.54309e-07
-2.87241e-15
-1.02012e-07
-3.65584e-07
-2.69017e-15
-4.72848e-08
-2.66329e-07
-5.25792e-16
-1.24346e-08
-1.60249e-07
1.34096e-15
-5.21033e-08
1.14321e-15
-1.43865e-08
6.98612e-08
-9.91651e-15
-5.40067e-08
2.06797e-07
-1.37296e-14
-1.15361e-07
3.3544e-07
-1.45652e-14
-1.94996e-07
4.5168e-07
-1.45631e-14
-2.8951e-07
5.52543e-07
-1.38028e-14
-3.95574e-07
6.35898e-07
-1.24711e-14
-5.09954e-07
7.00396e-07
-1.09426e-14
-6.29539e-07
7.4538e-07
-9.47048e-15
-7.51366e-07
7.7078e-07
-8.09342e-15
-8.72648e-07
7.77007e-07
-6.81125e-15
-9.90792e-07
7.64857e-07
-5.69161e-15
-1.10342e-06
7.35426e-07
-4.80113e-15
-1.20837e-06
6.90037e-07
-4.09691e-15
-1.30372e-06
6.30185e-07
-3.46204e-15
-1.38778e-06
5.57487e-07
-2.80472e-15
-1.45909e-06
4.73653e-07
-2.15058e-15
-1.51644e-06
3.80466e-07
-1.6059e-15
-1.55883e-06
2.79765e-07
-1.26932e-15
-1.58552e-06
1.73445e-07
-1.12854e-15
-1.59602e-06
6.34532e-08
-1.07217e-15
-1.59005e-06
-4.82096e-08
-9.76672e-16
-1.56761e-06
-1.59487e-07
-8.16089e-16
-1.52897e-06
-2.68267e-07
-6.59403e-16
-1.47464e-06
-3.72392e-07
-5.74635e-16
-1.40546e-06
-4.69668e-07
-5.17328e-16
-1.32253e-06
-5.57891e-07
-3.58252e-16
-1.22727e-06
-6.34876e-07
-6.37692e-17
-1.12142e-06
-6.98505e-07
1.25136e-16
-1.00701e-06
-7.46783e-07
-1.8169e-16
-8.86377e-07
-7.77908e-07
-1.0263e-15
-7.62156e-07
-7.90352e-07
-1.75617e-15
-6.37216e-07
-7.82953e-07
-1.38635e-15
-5.14642e-07
-7.55013e-07
1.94473e-16
-3.97679e-07
-7.06395e-07
1.68578e-15
-2.89669e-07
-6.37628e-07
1.44859e-15
-1.93989e-07
-5.4999e-07
-4.6288e-16
-1.13985e-07
-4.45588e-07
-2.14134e-15
-5.29201e-08
-3.27394e-07
-1.97534e-15
-1.39316e-08
-1.99238e-07
-3.581e-16
-6.60349e-08
1.04367e-15
-1.58323e-08
8.56934e-08
-7.5614e-15
-5.93752e-08
2.5034e-07
-1.01561e-14
-1.26666e-07
4.02731e-07
-1.06729e-14
-2.1378e-07
5.38794e-07
-1.0801e-14
-3.16867e-07
6.5563e-07
-1.04922e-14
-4.32192e-07
7.51223e-07
-9.72315e-15
-5.56164e-07
8.24368e-07
-8.70951e-15
-6.8537e-07
8.74586e-07
-7.66576e-15
-8.16603e-07
9.02013e-07
-6.63799e-15
-9.46883e-07
9.07287e-07
-5.61598e-15
-1.07347e-06
8.91446e-07
-4.66948e-15
-1.19389e-06
8.55839e-07
-3.9082e-15
-1.30589e-06
8.02046e-07
-3.37064e-15
-1.40753e-06
7.31816e-07
-2.96833e-15
-1.49706e-06
6.47019e-07
-2.56854e-15
-1.57302e-06
5.49614e-07
-2.09186e-15
-1.63418e-06
4.41624e-07
-1.58371e-15
-1.67954e-06
3.25126e-07
-1.16573e-15
-1.70834e-06
2.0225e-07
-9.38215e-16
-1.72007e-06
7.51776e-08
-8.77523e-16
-1.71443e-06
-5.38505e-08
-8.59847e-16
-1.69138e-06
-1.82531e-07
-7.74779e-16
-1.65115e-06
-3.08495e-07
-6.41282e-16
-1.59423e-06
-4.29313e-07
-5.7504e-16
-1.5214e-06
-5.42502e-07
-6.31414e-16
-1.43374e-06
-6.45551e-07
-6.70832e-16
-1.33266e-06
-7.35955e-07
-4.56328e-16
-1.2199e-06
-8.1126e-07
4.08011e-17
-1.09756e-06
-8.69127e-07
4.13718e-16
-9.68057e-07
-9.07412e-07
9.48341e-17
-8.34156e-07
-9.24254e-07
-9.3607e-16
-6.98927e-07
-9.18182e-07
-1.83997e-15
-5.65714e-07
-8.88226e-07
-1.54384e-15
-4.38081e-07
-8.34028e-07
-5.85997e-17
-3.19753e-07
-7.55956e-07
1.29153e-15
-2.14542e-07
-6.552e-07
1.16078e-15
-1.26272e-07
-5.33858e-07
-2.2369e-16
-5.87036e-08
-3.94962e-07
-1.33769e-15
-1.54681e-08
-2.42473e-07
-1.17152e-15
-8.15029e-08
6.96356e-17
-1.7293e-08
1.02986e-07
-5.85963e-15
-6.47897e-08
2.97837e-07
-7.78295e-15
-1.38054e-07
4.75995e-07
-8.04882e-15
-2.32679e-07
6.33419e-07
-8.09551e-15
-3.44357e-07
7.67308e-07
-7.91595e-15
-4.6893e-07
8.75796e-07
-7.43803e-15
-6.02441e-07
9.57879e-07
-6.79306e-15
-7.41169e-07
1.01331e-06
-6.13819e-15
-8.8166e-07
1.0425e-06
-5.48122e-15
-1.02074e-06
1.04637e-06
-4.75327e-15
-1.15554e-06
1.02625e-06
-3.96614e-15
-1.28348e-06
9.8378e-07
-3.24754e-15
-1.40228e-06
9.20842e-07
-2.71967e-15
-1.50993e-06
8.39465e-07
-2.40112e-15
-1.6047e-06
7.41791e-07
-2.18755e-15
-1.68512e-06
6.30037e-07
-1.94352e-15
-1.74997e-06
5.06471e-07
-1.59537e-15
-1.79825e-06
3.73405e-07
-1.19766e-15
-1.8292e-06
2.33197e-07
-8.80624e-16
-1.84227e-06
8.8254e-08
-7.3857e-16
-1.83717e-06
-5.89575e-08
-7.27444e-16
-1.8138e-06
-2.05899e-07
-7.09609e-16
-1.77234e-06
-3.49955e-07
-5.99722e-16
-1.71322e-06
-4.8843e-07
-4.77851e-16
-1.63717e-06
-6.18554e-07
-5.07305e-16
-1.54521e-06
-7.37506e-07
-7.10024e-16
-1.43873e-06
-8.42442e-07
-8.3554e-16
-1.31944e-06
-9.30548e-07
-5.59667e-16
-1.18946e-06
-9.99108e-07
1.10233e-16
-1.05128e-06
-1.04559e-06
6.17367e-16
-9.07802e-07
-1.06774e-06
3.03911e-16
-7.62277e-07
-1.06371e-06
-7.79518e-16
-6.18314e-07
-1.03219e-06
-1.71098e-15
-4.79814e-07
-9.72527e-07
-1.50765e-15
-3.50909e-07
-8.84861e-07
-2.86529e-16
-2.35877e-07
-7.70233e-07
8.18559e-16
-1.39053e-07
-6.30682e-07
8.41771e-16
-6.47321e-08
-4.69283e-07
6.47804e-18
-1.70744e-08
-2.90131e-07
-6.99052e-16
-9.85773e-08
-5.17833e-16
-1.87863e-08
1.21773e-07
-4.39246e-15
-7.03067e-08
3.49357e-07
-6.04995e-15
-1.49627e-07
5.55316e-07
-6.27602e-15
-2.51838e-07
7.3563e-07
-6.28909e-15
-3.72149e-07
8.87618e-07
-6.11536e-15
-5.05965e-07
1.00961e-06
-5.71386e-15
-6.4895e-07
1.10086e-06
-5.20234e-15
-7.97066e-07
1.16143e-06
-4.75564e-15
-9.46611e-07
1.19205e-06
-4.39645e-15
-1.09423e-06
1.19399e-06
-4.00073e-15
-1.23693e-06
1.16894e-06
-3.47384e-15
-1.37204e-06
1.1189e-06
-2.86002e-15
-1.49726e-06
1.04606e-06
-2.30609e-15
-1.61057e-06
9.52777e-07
-1.92957e-15
-1.71026e-06
8.41481e-07
-1.74334e-15
-1.79488e-06
7.14655e-07
-1.64471e-15
-1.86323e-06
5.74815e-07
-1.50016e-15
-1.91432e-06
4.24503e-07
-1.24122e-15
-1.94742e-06
2.6629e-07
-9.3126e-16
-1.96196e-06
1.02794e-07
-7.04067e-16
-1.9576e-06
-6.33107e-08
-6.34945e-16
-1.93423e-06
-2.29269e-07
-6.4807e-16
-1.89195e-06
-3.92235e-07
-5.96004e-16
-1.83112e-06
-5.49261e-07
-4.35485e-16
-1.75238e-06
-6.97298e-07
-3.1868e-16
-1.65668e-06
-8.33209e-07
-4.43845e-16
-1.54531e-06
-9.53804e-07
-7.75868e-16
-1.41998e-06
-1.05589e-06
-9.62253e-16
-1.28277e-06
-1.13632e-06
-6.33384e-16
-1.13622e-06
-1.19213e-06
1.36378e-16
-9.83346e-07
-1.22061e-06
6.98865e-16
-8.27574e-07
-1.21948e-06
4.10782e-16
-6.72781e-07
-1.18698e-06
-5.97048e-16
-5.23216e-07
-1.12209e-06
-1.44391e-15
-3.83441e-07
-1.02464e-06
-1.33586e-15
-2.58238e-07
-8.95436e-07
-4.1255e-16
-1.52497e-07
-7.36423e-07
4.73275e-16
-7.10971e-08
-5.50683e-07
6.23448e-16
-1.87785e-08
-3.42449e-07
1.47016e-16
-1.17356e-07
-3.2139e-16
-2.03282e-08
1.42101e-07
-3.14487e-15
-7.59779e-08
4.05007e-07
-4.61431e-15
-1.6148e-07
6.40818e-07
-4.90235e-15
-2.71384e-07
8.45534e-07
-4.98771e-15
-4.0039e-07
1.01662e-06
-4.90185e-15
-5.43441e-07
1.15266e-06
-4.57237e-15
-6.95801e-07
1.25322e-06
-4.08166e-15
-8.53112e-07
1.31874e-06
-3.64308e-15
-1.01142e-06
1.35036e-06
-3.37663e-15
-1.16721e-06
1.34978e-06
-3.20785e-15
-1.31736e-06
1.31909e-06
-2.97265e-15
-1.45917e-06
1.26071e-06
-2.58969e-15
-1.59032e-06
1.1772e-06
-2.1135e-15
-1.7088e-06
1.07127e-06
-1.68224e-15
-1.81297e-06
9.45643e-07
-1.40584e-15
-1.9014e-06
8.03092e-07
-1.29959e-15
-1.97296e-06
6.46373e-07
-1.26655e-15
-2.0267e-06
4.78247e-07
-1.17792e-15
-2.0619e-06
3.01484e-07
-9.77717e-16
-2.07799e-06
1.18889e-07
-7.43128e-16
-2.07462e-06
-6.66805e-08
-6.03651e-16
-2.05161e-06
-2.5228e-07
-5.98853e-16
-2.00899e-06
-4.34856e-07
-6.13344e-16
-1.94703e-06
-6.11229e-07
-5.01486e-16
-1.86624e-06
-7.78083e-07
-2.79036e-16
-1.76747e-06
-9.31975e-07
-1.68811e-16
-1.65192e-06
-1.06936e-06
-3.78443e-16
-1.52118e-06
-1.18662e-06
-8.00813e-16
-1.37731e-06
-1.28019e-06
-1.01372e-15
-1.22286e-06
-1.34658e-06
-6.55561e-16
-1.06089e-06
-1.38258e-06
1.21465e-16
-8.95021e-07
-1.38535e-06
6.61003e-16
-7.29377e-07
-1.35263e-06
4.15664e-16
-5.68571e-07
-1.2829e-06
-4.31145e-16
-4.1762e-07
-1.17559e-06
-1.12651e-15
-2.81851e-07
-1.0312e-06
-1.07255e-15
-1.66764e-07
-8.5151e-07
-3.82965e-16
-7.78856e-08
-6.39562e-07
3.05439e-16
-2.06073e-08
-3.99727e-07
5.16762e-16
-1.37963e-07
2.10186e-16
-2.19339e-08
1.64035e-07
-2.29e-15
-8.18527e-08
4.64925e-07
-3.47824e-15
-1.73699e-07
7.32664e-07
-3.7309e-15
-2.91436e-07
9.63271e-07
-3.8647e-15
-4.29208e-07
1.1544e-06
-3.92956e-15
-5.81463e-07
1.30492e-06
-3.78697e-15
-7.43049e-07
1.41481e-06
-3.39961e-15
-9.09276e-07
1.48497e-06
-2.93467e-15
-1.07595e-06
1.51704e-06
-2.59855e-15
-1.23939e-06
1.51321e-06
-2.44876e-15
-1.3964e-06
1.4761e-06
-2.38037e-15
-1.54425e-06
1.40856e-06
-2.24285e-15
-1.68064e-06
1.31359e-06
-1.96868e-15
-1.80364e-06
1.19427e-06
-1.60284e-15
-1.91166e-06
1.05367e-06
-1.26593e-15
-2.00339e-06
8.9482e-07
-1.06134e-15
-2.07775e-06
7.20733e-07
-1.00449e-15
-2.13387e-06
5.34366e-07
-1.00105e-15
-2.17106e-06
3.38668e-07
-9.33127e-16
-2.18876e-06
1.36597e-07
-7.69849e-16
-2.18661e-06
-6.88344e-08
-6.06258e-16
-2.16436e-06
-2.74528e-07
-5.55057e-16
-2.12196e-06
-4.77257e-07
-6.04416e-16
-2.05955e-06
-6.73639e-07
-6.00402e-16
-1.97752e-06
-8.60115e-07
-4.16575e-16
-1.87655e-06
-1.03294e-06
-1.37774e-16
-1.75769e-06
-1.18822e-06
-4.03277e-17
-1.6224e-06
-1.32191e-06
-3.10286e-16
-1.47265e-06
-1.42995e-06
-7.7053e-16
-1.31093e-06
-1.5083e-06
-9.76764e-16
-1.14036e-06
-1.55315e-06
-6.24532e-16
-9.64682e-07
-1.56103e-06
7.58738e-17
-7.88272e-07
-1.52904e-06
5.36431e-16
-6.16105e-07
-1.45507e-06
3.46041e-16
-4.53684e-07
-1.33801e-06
-2.96352e-16
-3.06925e-07
-1.17796e-06
-7.98937e-16
-1.82005e-07
-9.7643e-07
-7.47016e-16
-8.51814e-08
-7.36386e-07
-2.42173e-16
-2.25869e-08
-4.62322e-07
3.16094e-16
-1.6055e-07
5.19181e-16
-2.36193e-08
1.87654e-07
-1.85268e-15
-8.79821e-08
5.29288e-07
-2.7362e-15
-1.86375e-07
8.31058e-07
-2.83822e-15
-3.12108e-07
1.089e-06
-2.88139e-15
-4.58715e-07
1.301e-06
-3.00622e-15
-6.20109e-07
1.46631e-06
-3.06838e-15
-7.90693e-07
1.58539e-06
-2.9079e-15
-9.65439e-07
1.65971e-06
-2.54768e-15
-1.13992e-06
1.69151e-06
-2.16184e-15
-1.31031e-06
1.6836e-06
-1.90876e-15
-1.47336e-06
1.63916e-06
-1.81527e-15
-1.62637e-06
1.56157e-06
-1.79224e-15
-1.76711e-06
1.45433e-06
-1.71625e-15
-1.89375e-06
1.32091e-06
-1.52379e-15
-2.00481e-06
1.16473e-06
-1.24506e-15
-2.09912e-06
9.89129e-07
-9.85451e-16
-2.17571e-06
7.97324e-07
-8.3921e-16
-2.23381e-06
5.92463e-07
-8.1229e-16
-2.27278e-06
3.77637e-07
-8.09842e-16
-2.29211e-06
1.55928e-07
-7.35597e-16
-2.2914e-06
-6.95461e-08
-5.9637e-16
-2.27035e-06
-2.95573e-07
-5.0341e-16
-2.22881e-06
-5.18797e-07
-5.37359e-16
-2.16678e-06
-7.35671e-07
-6.26441e-16
-2.08447e-06
-9.42424e-07
-5.89944e-16
-1.98237e-06
-1.13504e-06
-3.38405e-16
-1.86132e-06
-1.30927e-06
-2.33703e-17
-1.7226e-06
-1.46064e-06
5.52664e-17
-1.56799e-06
-1.58455e-06
-2.4147e-16
-1.39992e-06
-1.67638e-06
-6.86528e-16
-1.22147e-06
-1.7316e-06
-8.64696e-16
-1.03647e-06
-1.74602e-06
-5.55409e-16
-8.49527e-07
-1.71598e-06
1.19682e-17
-6.65976e-07
-1.63862e-06
3.7082e-16
-4.91829e-07
-1.51215e-06
2.5266e-16
-3.33649e-07
-1.33614e-06
-1.62662e-16
-1.98366e-07
-1.11171e-06
-4.70812e-16
-9.30676e-08
-8.41685e-07
-4.13807e-16
-2.47436e-08
-5.30646e-07
-1.9306e-17
-1.85294e-07
4.53118e-16
-2.54022e-08
2.13056e-07
-1.61807e-15
-9.44226e-08
5.98309e-07
-2.32476e-15
-1.99605e-07
9.36239e-07
-2.30243e-15
-3.3352e-07
1.22292e-06
-2.18039e-15
-4.89021e-07
1.4565e-06
-2.20272e-15
-6.5943e-07
1.63672e-06
-2.32985e-15
-8.3868e-07
1.76464e-06
-2.37856e-15
-1.02139e-06
1.84243e-06
-2.23628e-15
-1.20292e-06
1.87304e-06
-1.94906e-15
-1.37932e-06
1.86001e-06
-1.64748e-15
-1.54736e-06
1.80719e-06
-1.44588e-15
-1.70438e-06
1.71859e-06
-1.37273e-15
-1.84828e-06
1.59823e-06
-1.36876e-15
-1.9774e-06
1.45003e-06
-1.3313e-15
-2.09043e-06
1.27777e-06
-1.19656e-15
-2.18638e-06
1.08508e-06
-9.86439e-16
-2.26444e-06
8.75379e-07
-7.95589e-16
-2.32395e-06
6.5198e-07
-7.01316e-16
-2.36439e-06
4.18075e-07
-6.89242e-16
-2.38528e-06
1.7682e-07
-6.65271e-16
-2.38622e-06
-6.8608e-08
-5.67355e-16
-2.36685e-06
-3.14939e-07
-4.46949e-16
-2.32691e-06
-5.58742e-07
-4.22992e-16
-2.26622e-06
-7.96359e-07
-5.3086e-16
-2.18479e-06
-1.02385e-06
-6.4179e-16
-2.08287e-06
-1.23696e-06
-5.68063e-16
-1.96103e-06
-1.43111e-06
-2.68789e-16
-1.82029e-06
-1.60138e-06
5.436e-17
-1.6622e-06
-1.74264e-06
1.12718e-16
-1.48899e-06
-1.84958e-06
-1.74123e-16
-1.30367e-06
-1.91692e-06
-5.62219e-16
-1.11011e-06
-1.93959e-06
-7.06512e-16
-9.13074e-07
-1.91301e-06
-4.70985e-16
-7.18263e-07
-1.83343e-06
-5.71258e-17
-5.32216e-07
-1.6982e-06
2.18388e-16
-3.62198e-07
-1.50616e-06
2.04452e-16
-2.1599e-07
-1.25792e-06
1.31071e-18
-1.01629e-07
-9.56046e-07
-1.68936e-16
-2.71051e-08
-6.0517e-07
-1.21578e-16
-2.12399e-07
2.19725e-16
-2.73045e-08
2.40361e-07
-1.35435e-15
-1.01243e-07
6.72247e-07
-2.02267e-15
-2.13502e-07
1.0485e-06
-2.02084e-15
-3.55808e-07
1.36522e-06
-1.80853e-15
-5.20239e-07
1.62093e-06
-1.671e-15
-6.99463e-07
1.81595e-06
-1.70254e-15
-8.86903e-07
1.95208e-06
-1.80336e-15
-1.07683e-06
2.03235e-06
-1.83439e-15
-1.26439e-06
2.0606e-06
-1.73574e-15
-1.44558e-06
2.04121e-06
-1.53047e-15
-1.61721e-06
1.97882e-06
-1.29555e-15
-1.77676e-06
1.87814e-06
-1.12348e-15
-1.92231e-06
1.74378e-06
-1.05832e-15
-2.05243e-06
1.58015e-06
-1.06294e-15
-2.16607e-06
1.39141e-06
-1.04605e-15
-2.26244e-06
1.18145e-06
-9.4808e-16
-2.34096e-06
9.53897e-07
-7.93596e-16
-2.40114e-06
7.12167e-07
-6.67572e-16
-2.44259e-06
4.59518e-07
-6.20039e-16
-2.46489e-06
1.99122e-07
-6.09626e-16
-2.46765e-06
-6.58461e-08
-5.4921e-16
-2.45047e-06
-3.32125e-07
-4.20732e-16
-2.41293e-06
-5.96274e-07
-3.18397e-16
-2.35471e-06
-8.54587e-07
-3.55964e-16
-2.27554e-06
-1.10302e-06
-5.17771e-16
-2.17537e-06
-1.33712e-06
-6.32989e-16
-2.05446e-06
-1.55202e-06
-5.28341e-16
-1.91348e-06
-1.74237e-06
-2.12242e-16
-1.75364e-06
-1.90247e-06
9.13805e-17
-1.57693e-06
-2.0263e-06
1.35185e-16
-1.38614e-06
-2.10771e-06
-1.08091e-16
-1.1851e-06
-2.14063e-06
-4.15568e-16
-9.78699e-07
-2.11941e-06
-5.35165e-16
-7.72957e-07
-2.03917e-06
-3.89979e-16
-5.7496e-07
-1.8962e-06
-1.07047e-16
-3.92736e-07
-1.68839e-06
1.42129e-16
-2.35023e-07
-1.41563e-06
2.42046e-16
-1.10957e-07
-1.08011e-06
1.70226e-16
-2.97018e-08
-6.86425e-07
4.25009e-17
-2.421e-07
8.70101e-17
-2.93542e-08
2.69715e-07
-1.02449e-15
-1.0853e-07
7.51422e-07
-1.66531e-15
-2.28213e-07
1.16818e-06
-1.78102e-15
-3.79141e-07
1.51615e-06
-1.6176e-15
-5.52503e-07
1.7943e-06
-1.41125e-15
-7.40233e-07
2.00368e-06
-1.32165e-15
-9.35205e-07
2.14705e-06
-1.34035e-15
-1.13133e-06
2.22848e-06
-1.38886e-15
-1.3236e-06
2.25287e-06
-1.41203e-15
-1.508e-06
2.2256e-06
-1.36518e-15
-1.68144e-06
2.15226e-06
-1.2277e-15
-1.84162e-06
2.03832e-06
-1.03962e-15
-1.98692e-06
1.88907e-06
-8.90169e-16