/*--------------------------------*- C++ -*----------------------------------*\
| =========                 |                                                 |
| \\      /  F ield         | OpenFOAM: The Open Source CFD Toolbox           |
|  \\    /   O peration     | Version:  v1812                                 |
|   \\  /    A nd           | Web:      www.OpenFOAM.com                      |
|    \\/     M anipulation  |                                                 |
\*---------------------------------------------------------------------------*/
FoamFile
{
    version     2.0;
    format      ascii;
    class       volVectorField;
    location    "0.5";
    object      U;
}
// * * * * * * * * * * * * * * * * * * * * * * * * * * * * * * * * * * * * * //

dimensions      [0 1 -1 0 0 0 0];


internalField   nonuniform List<vector> 
3200
(
(6.014e-05 -6.06836e-05 -4.94881e-07)
(0.000155593 -5.71675e-05 2.68591e-05)
(0.000157051 -7.47903e-06 9.05025e-05)
(6.82e-06 5.14056e-05 0.000176084)
(-0.000303181 0.000106343 0.000267936)
(-0.000756451 0.000152668 0.000354551)
(-0.00132853 0.00018905 0.000427604)
(-0.00199244 0.000215551 0.000481223)
(-0.00272097 0.000232748 0.000511511)
(-0.00348782 0.000241387 0.000516151)
(-0.00426826 0.000242254 0.000494082)
(-0.00503943 0.000236126 0.000445259)
(-0.00578046 0.000223755 0.000370464)
(-0.0064726 0.000205866 0.000271161)
(-0.00709921 0.000183159 0.000149383)
(-0.0076458 0.000156316 7.63492e-06)
(-0.00810005 0.000126009 -0.000151174)
(-0.00845181 9.29084e-05 -0.000323801)
(-0.00869315 5.76943e-05 -0.000506724)
(-0.00881844 2.10643e-05 -0.000696198)
(-0.00882439 -1.62584e-05 -0.000888312)
(-0.00871014 -5.35178e-05 -0.00107905)
(-0.00847738 -8.9922e-05 -0.00126435)
(-0.00813041 -0.000124643 -0.00144019)
(-0.00767625 -0.000156821 -0.00160268)
(-0.00712466 -0.00018557 -0.00174811)
(-0.00648821 -0.00020999 -0.00187313)
(-0.00578226 -0.000229178 -0.00197481)
(-0.00502483 -0.000242247 -0.00205077)
(-0.00423654 -0.000248339 -0.00209937)
(-0.00344029 -0.000246649 -0.00211977)
(-0.00266103 -0.000236444 -0.00211219)
(-0.00192528 -0.000217094 -0.00207802)
(-0.00126053 -0.00018812 -0.00202008)
(-0.000694347 -0.000149314 -0.00194287)
(-0.000252985 -0.000101074 -0.00185287)
(4.10756e-05 -4.52459e-05 -0.00175895)
(0.000174625 1.29754e-05 -0.00167291)
(0.000160351 6.00433e-05 -0.0016103)
(6.01252e-05 5.98983e-05 -0.00133592)
(5.84033e-05 -0.000157407 -2.82796e-05)
(7.19785e-05 -6.94374e-05 -8.65895e-07)
(-0.000179096 0.000181933 6.23724e-05)
(-0.000773461 0.000475906 0.000143706)
(-0.00172555 0.000759433 0.000230488)
(-0.0030088 0.00100734 0.000312313)
(-0.00457466 0.00120832 0.000381064)
(-0.00636375 0.0013585 0.000430655)
(-0.00831234 0.00145779 0.000456798)
(-0.0103562 0.00150808 0.000456751)
(-0.012433 0.00151235 0.000429081)
(-0.014484 0.00147414 0.000373459)
(-0.0164545 0.00139732 0.000290477)
(-0.018295 0.00128594 0.000181508)
(-0.0199612 0.00114412 4.85824e-05)
(-0.0214142 0.000976045 -0.000105711)
(-0.0226212 0.000785977 -0.000278313)
(-0.0235548 0.000578238 -0.000465768)
(-0.0241939 0.000357251 -0.000664298)
(-0.0245237 0.000127569 -0.000869866)
(-0.0245356 -0.000106102 -0.00107825)
(-0.0242279 -0.000338888 -0.0012851)
(-0.0236053 -0.000565738 -0.00148606)
(-0.0226801 -0.000781443 -0.00167679)
(-0.0214712 -0.000980665 -0.00185314)
(-0.0200053 -0.001158 -0.0020112)
(-0.0183158 -0.00130805 -0.00214745)
(-0.0164435 -0.00142553 -0.00225888)
(-0.014436 -0.0015054 -0.00234311)
(-0.0123468 -0.00154302 -0.00239857)
(-0.010235 -0.00153429 -0.00242464)
(-0.00816401 -0.00147594 -0.00242182)
(-0.0061999 -0.00136582 -0.00239185)
(-0.00440941 -0.00120338 -0.00233799)
(-0.00285693 -0.0009905 -0.00226509)
(-0.00160017 -0.000733222 -0.00217983)
(-0.000683573 -0.000445079 -0.00209084)
(-0.000127329 -0.000153265 -0.0020088)
(9.16342e-05 8.80378e-05 -0.00194652)
(6.15692e-05 0.000160743 -0.00155868)
(1.17652e-05 -0.000163275 -9.22765e-05)
(-0.000171768 0.000178731 -6.38561e-05)
(-0.000804439 0.000814085 2.57126e-07)
(-0.00193151 0.00153642 7.33632e-05)
(-0.0035543 0.00223891 0.000148478)
(-0.00563697 0.00286188 0.00021785)
(-0.00811463 0.0033737 0.000275104)
(-0.0109058 0.00375999 0.00031534)
(-0.0139209 0.00401658 0.000334967)
(-0.0170681 0.00414541 0.000331593)
(-0.0202565 0.00415217 0.000303903)
(-0.0233993 0.00404485 0.000251522)
(-0.0264153 0.00383288 0.000174886)
(-0.0292298 0.0035266 7.51323e-05)
(-0.0317761 0.00313689 -4.60007e-05)
(-0.0339955 0.00267509 -0.000186256)
(-0.0358376 0.00215282 -0.000342937)
(-0.0372614 0.00158205 -0.00051297)
(-0.0382349 0.000975065 -0.000692979)
(-0.0387354 0.000344538 -0.00087934)
(-0.0387505 -0.000296457 -0.00106826)
(-0.0382776 -0.000934423 -0.00125582)
(-0.0373247 -0.00155545 -0.0014381)
(-0.0359103 -0.00214527 -0.00161121)
(-0.0340639 -0.00268938 -0.00177142)
(-0.0318256 -0.00317321 -0.00191524)
(-0.0292465 -0.00358235 -0.00203955)
(-0.0263879 -0.00390285 -0.00214169)
(-0.023321 -0.00412165 -0.00221962)
(-0.0201258 -0.00422697 -0.00227201)
(-0.0168896 -0.00420895 -0.00229837)
(-0.0137053 -0.00406031 -0.00229922)
(-0.0106688 -0.00377735 -0.00227616)
(-0.00787558 -0.00336135 -0.00223204)
(-0.00541602 -0.00282076 -0.00217095)
(-0.00336962 -0.00217493 -0.00209836)
(-0.00179612 -0.00146054 -0.00202111)
(-0.000723389 -0.000741534 -0.00194727)
(-0.000138682 -0.000126939 -0.00188429)
(1.79581e-05 0.000180346 -0.00149601)
(-4.44304e-05 -2.23538e-05 -0.000179945)
(-0.000463478 0.000768562 -0.000146006)
(-0.00153566 0.00194171 -7.07407e-05)
(-0.00324208 0.00322673 4.35443e-06)
(-0.00555477 0.00446821 7.7418e-05)
(-0.00842297 0.00557106 0.000142625)
(-0.0117655 0.00648023 0.000195019)
(-0.0154824 0.00716761 0.000230848)
(-0.019464 0.00762257 0.000247297)
(-0.0235967 0.0078458 0.000242459)
(-0.0277679 0.00784543 0.000215286)
(-0.0318686 0.00763448 0.000165511)
(-0.0357965 0.0072292 9.35567e-05)
(-0.0394571 0.006648 4.5946e-07)
(-0.0427653 0.00591076 -0.00011221)
(-0.0456463 0.00503839 -0.000242412)
(-0.048036 0.00405264 -0.000387703)
(-0.0498817 0.00297599 -0.00054529)
(-0.0511425 0.00183163 -0.000712093)
(-0.0517898 0.000643474 -0.0008848)
(-0.0518077 -0.000563802 -0.00105993)
(-0.0511932 -0.00176477 -0.00123389)
(-0.0499566 -0.00293332 -0.00140306)
(-0.048122 -0.00404276 -0.00156388)
(-0.0457271 -0.00506608 -0.00171289)
(-0.0428234 -0.0059763 -0.00184689)
(-0.0394759 -0.00674687 -0.001963)
(-0.0357625 -0.00735237 -0.00205876)
(-0.0317733 -0.00776917 -0.00213228)
(-0.0276091 -0.00797639 -0.00218231)
(-0.0233796 -0.00795701 -0.00220836)
(-0.0192008 -0.00769925 -0.00221082)
(-0.0151919 -0.00719839 -0.00219101)
(-0.0114705 -0.00645922 -0.00215127)
(-0.00814794 -0.00549963 -0.00209494)
(-0.0053223 -0.00435609 -0.00202636)
(-0.00306911 -0.00309219 -0.001951)
(-0.00143006 -0.00181034 -0.00187509)
(-0.000419196 -0.000670244 -0.00180123)
(-3.5792e-05 6.00387e-05 -0.00140837)
(-9.88636e-05 0.000278369 -0.000277469)
(-0.000759696 0.00172991 -0.000236133)
(-0.00229023 0.0035924 -0.000144816)
(-0.00459397 0.0055561 -6.25869e-05)
(-0.00760329 0.00742858 1.34093e-05)
(-0.0112465 0.00908454 7.8873e-05)
(-0.0154237 0.010447 0.000130054)
(-0.0200166 0.0114738 0.000164268)
(-0.0248977 0.0121472 0.000179478)
(-0.0299355 0.0124661 0.000174301)
(-0.0349994 0.0124407 0.000148024)
(-0.0399627 0.0120896 0.000100563)
(-0.0447062 0.0114365 3.24058e-05)
(-0.0491194 0.0105094 -5.5439e-05)
(-0.0531027 0.00933854 -0.000161499)
(-0.0565682 0.00795634 -0.000283886)
(-0.0594406 0.0063967 -0.000420348)
(-0.061658 0.00469483 -0.000568312)
(-0.0631723 0.00288715 -0.000724936)
(-0.06395 0.00101125 -0.000887157)
(-0.0639724 -0.000894093 -0.00105175)
(-0.063236 -0.00278898 -0.00121537)
(-0.0617531 -0.00463251 -0.00137465)
(-0.059552 -0.00638301 -0.00152625)
(-0.0566769 -0.00799844 -0.00166694)
(-0.0531882 -0.00943691 -0.00179369)
(-0.0491621 -0.0106575 -0.00190377)
(-0.0446896 -0.011621 -0.00199484)
(-0.039876 -0.0122916 -0.00206506)
(-0.0348389 -0.0126377 -0.00211318)
(-0.0297057 -0.0126343 -0.00213861)
(-0.0246115 -0.0122646 -0.00214153)
(-0.0196943 -0.0115232 -0.00212291)
(-0.0150912 -0.010419 -0.00208458)
(-0.010932 -0.00898054 -0.00202913)
(-0.00733364 -0.00726206 -0.00195989)
(-0.00439037 -0.0053532 -0.00188122)
(-0.00216399 -0.00339055 -0.00179794)
(-0.000705833 -0.00157422 -0.00170818)
(-8.81135e-05 -0.000214546 -0.00130911)
(-0.000148483 0.00073249 -0.000374961)
(-0.00104386 0.00306356 -0.000324998)
(-0.00303027 0.00577355 -0.000214967)
(-0.00593119 0.00853211 -0.000122221)
(-0.00963415 0.0111214 -3.97812e-05)
(-0.0140418 0.0133929 2.92021e-05)
(-0.0190323 0.0152514 8.19525e-05)
(-0.0244682 0.0166428 0.000116727)
(-0.0302043 0.0175427 0.000132213)
(-0.0360928 0.0179486 0.000127547)
(-0.0419876 0.0178737 0.00010238)
(-0.0477471 0.0173422 5.6853e-05)
(-0.0532382 0.0163867 -8.4268e-06)
(-0.0583374 0.0150452 -9.24229e-05)
(-0.0629334 0.0133602 -0.000193703)
(-0.0669278 0.0113768 -0.000310472)
(-0.0702365 0.0091429 -0.000440613)
(-0.0727901 0.00670812 -0.000581717)
(-0.0745348 0.00412401 -0.000731122)
(-0.0754329 0.00144377 -0.000885956)
(-0.0754634 -0.00127771 -0.00104319)
(-0.0746223 -0.00398404 -0.00119966)
(-0.0729231 -0.00661747 -0.00135219)
(-0.0703972 -0.00911926 -0.00149758)
(-0.0670938 -0.0114303 -0.00163275)
(-0.0630803 -0.0134917 -0.00175478)
(-0.0584412 -0.0152462 -0.00186101)
(-0.0532784 -0.0166393 -0.00194912)
(-0.0477091 -0.017621 -0.00201725)
(-0.0418645 -0.0181479 -0.00206406)
(-0.0358872 -0.0181856 -0.00208879)
(-0.0299281 -0.0177119 -0.00209137)
(-0.0241427 -0.0167199 -0.0020724)
(-0.0186855 -0.0152227 -0.00203319)
(-0.0137054 -0.0132585 -0.00197568)
(-0.00933957 -0.0108982 -0.00190232)
(-0.00570458 -0.00825451 -0.00181661)
(-0.00288731 -0.00549212 -0.00172236)
(-0.000981744 -0.00284138 -0.00161383)
(-0.000135796 -0.000637673 -0.00120761)
(-0.000193199 0.00132971 -0.00046523)
(-0.0013116 0.00475812 -0.000405144)
(-0.00374192 0.00847744 -0.000275059)
(-0.0072305 0.012149 -0.000169618)
(-0.0116184 0.0155392 -7.83114e-05)
(-0.0167795 0.0184834 -3.46342e-06)
(-0.0225675 0.0208734 5.29041e-05)
(-0.0288237 0.0226459 8.98485e-05)
(-0.0353852 0.0237721 0.000106703)
(-0.0420882 0.0242495 0.000103097)
(-0.048772 0.024095 7.9044e-05)
(-0.0552822 0.0233401 3.49351e-05)
(-0.0614737 0.0220267 -2.84706e-05)
(-0.0672124 0.0202046 -0.000110064)
(-0.0723773 0.0179289 -0.000208407)
(-0.0768618 0.0152595 -0.000321749)
(-0.0805746 0.012259 -0.000448055)
(-0.0834403 0.00899317 -0.000585027)
(-0.0854005 0.00553005 -0.000730132)
(-0.0864141 0.00193998 -0.000880634)
(-0.0864581 -0.00170456 -0.00103363)
(-0.0855277 -0.00532908 -0.00118611)
(-0.083637 -0.0088574 -0.00133499)
(-0.0808194 -0.0122121 -0.00147717)
(-0.0771278 -0.0153152 -0.00160963)
(-0.0726344 -0.0180893 -0.00172949)
(-0.0674306 -0.0204592 -0.00183408)
(-0.0616263 -0.0223531 -0.00192106)
(-0.0553485 -0.0237056 -0.00198845)
(-0.04874 -0.0244599 -0.00203475)
(-0.0419565 -0.0245709 -0.002059)
(-0.0351636 -0.0240094 -0.00206083)
(-0.0285328 -0.0227661 -0.00204046)
(-0.0222368 -0.0208564 -0.00199874)
(-0.0164442 -0.0183271 -0.00193701)
(-0.0113149 -0.0152628 -0.001857)
(-0.00699068 -0.011795 -0.00176159)
(-0.00358709 -0.0081108 -0.00165394)
(-0.00124276 -0.00446242 -0.00152504)
(-0.000178725 -0.00119967 -0.00111056)
(-0.000233942 0.00206032 -0.000542854)
(-0.00156412 0.00679906 -0.000470464)
(-0.00442411 0.0116906 -0.000319808)
(-0.00848769 0.0163951 -0.000200429)
(-0.0135498 0.0206707 -9.87558e-05)
(-0.0194537 0.0243433 -1.65389e-05)
(-0.0260268 0.0272963 4.47743e-05)
(-0.0330878 0.0294613 8.49112e-05)
(-0.0404547 0.0308081 0.000103771)
(-0.0479477 0.0313364 0.000101436)
(-0.0553924 0.0310686 7.82652e-05)
(-0.0626223 0.0300448 3.49087e-05)
(-0.0694817 0.0283176 -2.7702e-05)
(-0.0758275 0.0259496 -0.000108357)
(-0.081531 0.0230103 -0.000205574)
(-0.0864788 0.0195747 -0.00031761)
(-0.0905738 0.0157219 -0.00044247)
(-0.093736 0.0115345 -0.000577921)
(-0.0959033 0.00709822 -0.000721512)
(-0.0970317 0.00250164 -0.000870594)
(-0.0970962 -0.00216404 -0.00102235)
(-0.0960911 -0.00680514 -0.00117385)
(-0.0940305 -0.0113258 -0.00132205)
(-0.0909487 -0.0156287 -0.00146391)
(-0.0869007 -0.0196157 -0.0015964)
(-0.0819623 -0.0231895 -0.00171662)
(-0.0762296 -0.0262551 -0.00182183)
(-0.0698188 -0.0287223 -0.00190957)
(-0.0628653 -0.0305082 -0.00197771)
(-0.0555216 -0.0315409 -0.00202455)
(-0.0479553 -0.0317632 -0.00204887)
(-0.040346 -0.0311367 -0.00204996)
(-0.0328814 -0.0296477 -0.0020277)
(-0.0257528 -0.027312 -0.00198247)
(-0.0191505 -0.0241817 -0.00191511)
(-0.0132589 -0.0203521 -0.00182679)
(-0.008248 -0.0159695 -0.00171996)
(-0.00426411 -0.0112379 -0.0015974)
(-0.0014907 -0.00642569 -0.0014473)
(-0.000217916 -0.00189167 -0.0010228)
(-0.000271846 0.00291655 -0.000603598)
(-0.00180476 0.00917302 -0.000515834)
(-0.00508175 0.0153996 -0.000344513)
(-0.00970845 0.0212587 -0.000210555)
(-0.0154346 0.0265056 -9.76689e-05)
(-0.0220724 0.0309619 -7.21361e-06)
(-0.0294211 0.034508 5.9797e-05)
(-0.0372756 0.0370743 0.000103653)
(-0.0454343 0.0386328 0.000124746)
(-0.0537007 0.039188 0.000123567)
(-0.0618867 0.0387703 0.000100806)
(-0.0698146 0.0374302 5.73654e-05)
(-0.077319 0.0352327 -5.63843e-06)
(-0.0842492 0.0322546 -8.6874e-05)
(-0.0904699 0.0285809 -0.000184791)
(-0.0958622 0.0243028 -0.00029762)
(-0.100325 0.0195167 -0.000423372)
(-0.103774 0.0143231 -0.000559843)
(-0.106144 0.00882614 -0.000704625)
(-0.10739 0.0031332 -0.000855116)
(-0.107484 -0.00264501 -0.00100854)
(-0.106418 -0.00839482 -0.00116199)
(-0.104208 -0.0139999 -0.00131245)
(-0.100886 -0.019342 -0.00145684)
(-0.0965085 -0.0243019 -0.0015921)
(-0.0911536 -0.028761 -0.00171524)
(-0.0849204 -0.0326032 -0.00182339)
(-0.0779301 -0.0357181 -0.00191394)
(-0.0703244 -0.0380037 -0.00198453)
(-0.0622646 -0.0393709 -0.00203323)
(-0.0539294 -0.0397475 -0.0020585)
(-0.0455122 -0.0390844 -0.0020593)
(-0.0372173 -0.0373601 -0.00203513)
(-0.0292558 -0.034588 -0.00198597)
(-0.0218412 -0.0308225 -0.00191221)
(-0.0151848 -0.0261656 -0.00181458)
(-0.00948677 -0.0207746 -0.00169526)
(-0.00492577 -0.0148664 -0.00155685)
(-0.00172984 -0.00872174 -0.00138508)
(-0.00025466 -0.00270714 -0.000947944)
(-0.000307959 0.00389289 -0.000643966)
(-0.00203738 0.0118697 -0.000536806)
(-0.00572213 0.0195933 -0.000344897)
(-0.010903 0.0267297 -0.00019608)
(-0.0172855 0.033035 -7.15767e-05)
(-0.0246502 0.0383312 2.75206e-05)
(-0.0327675 0.0424999 0.000100529)
(-0.0414077 0.0454749 0.000148217)
(-0.0503481 0.0472337 0.000171413)
(-0.0593757 0.0477894 0.000170978)
(-0.0682885 0.047183 0.000147911)
(-0.0768978 0.0454776 0.000103365)
(-0.0850298 0.0427528 3.86465e-05)
(-0.0925269 0.039101 -4.47789e-05)
(-0.0992484 0.0346238 -0.000145272)
(-0.105071 0.02943 -0.000261013)
(-0.109891 0.023634 -0.000389991)
(-0.113621 0.0173545 -0.000530004)
(-0.116194 0.0107147 -0.000678652)
(-0.117561 0.00384119 -0.000833346)
(-0.117694 -0.00313541 -0.000991317)
(-0.116584 -0.0100811 -0.00114964)
(-0.114243 -0.0168585 -0.00130528)
(-0.110704 -0.0233279 -0.00145509)
(-0.106023 -0.029348 -0.00159592)
(-0.100277 -0.0347779 -0.00172464)
(-0.0935686 -0.039479 -0.00183821)
(-0.0860212 -0.0433189 -0.0019338)
(-0.0777821 -0.0461744 -0.0020088)
(-0.0690203 -0.0479367 -0.00206096)
(-0.0599249 -0.0485164 -0.00208842)
(-0.0507029 -0.0478497 -0.00208978)
(-0.041576 -0.0459048 -0.00206415)
(-0.0327762 -0.0426887 -0.00201112)
(-0.0245418 -0.0382543 -0.00193071)
(-0.0171132 -0.032707 -0.00182326)
(-0.0107226 -0.0262111 -0.00169082)
(-0.00558239 -0.0189935 -0.00153595)
(-0.00196524 -0.0113456 -0.00134215)
(-0.00029021 -0.00364238 -0.000888847)
(-0.000343172 0.00498605 -0.000660868)
(-0.00226577 0.0148826 -0.000529334)
(-0.00635312 0.0242645 -0.000316942)
(-0.0120829 0.0328015 -0.000153202)
(-0.0191174 0.0402533 -1.69808e-05)
(-0.0272047 0.0464456 9.08129e-05)
(-0.0360859 0.0512658 0.000169757)
(-0.0455055 0.0546552 0.000221043)
(-0.0552195 0.0566012 0.000245891)
(-0.0649977 0.0571288 0.000245505)
(-0.0746245 0.0562929 0.000221182)
(-0.0839007 0.054172 0.000174318)
(-0.0926447 0.0508623 0.000106412)
(-0.100693 0.0464737 1.90772e-05)
(-0.107901 0.0411258 -8.59448e-05)
(-0.114142 0.0349459 -0.000206765)
(-0.11931 0.0280669 -0.000341333)
(-0.123317 0.0206265 -0.000487419)
(-0.126093 0.0127667 -0.000642611)
(-0.127588 0.00463374 -0.000804304)
(-0.127771 -0.00362202 -0.000969707)
(-0.126633 -0.0118461 -0.00113586)
(-0.124182 -0.0198801 -0.00129964)
(-0.12045 -0.0275623 -0.00145783)
(-0.11549 -0.0347288 -0.00160714)
(-0.10938 -0.0412153 -0.00174424)
(-0.102221 -0.0468596 -0.0018659)
(-0.0941393 -0.0515051 -0.001969)
(-0.0852849 -0.0550053 -0.00205063)
(-0.0758337 -0.0572288 -0.0021082)
(-0.0659848 -0.0580657 -0.00213947)
(-0.0559588 -0.057434 -0.00214265)
(-0.045995 -0.0552875 -0.00211644)
(-0.0363475 -0.0516229 -0.00206007)
(-0.0272813 -0.0464873 -0.00197317)
(-0.0190678 -0.0399856 -0.0018558)
(-0.0119731 -0.0322858 -0.00170992)
(-0.00624524 -0.0236227 -0.00153817)
(-0.00220199 -0.0142977 -0.00132194)
(-0.000325697 -0.00469655 -0.000847976)
(-0.000378229 0.00619472 -0.000651385)
(-0.00249335 0.0182089 -0.000489553)
(-0.00698229 0.0294101 -0.000256737)
(-0.0132602 0.0394713 -7.81323e-05)
(-0.0209454 0.0481574 6.96935e-05)
(-0.0297536 0.0553017 0.000185968)
(-0.0393955 0.0608009 0.000270489)
(-0.049589 0.0646087 0.000324833)
(-0.0600685 0.0667263 0.000350591)
(-0.0705863 0.0671948 0.000349295)
(-0.0809133 0.0660864 0.00032253)
(-0.0908405 0.0634982 0.000271936)
(-0.100179 0.0595455 0.000199209)
(-0.108762 0.0543576 0.000106117)
(-0.11644 0.0480736 -5.48447e-06)
(-0.123087 0.0408401 -0.000133623)
(-0.128594 0.0328091 -0.000276191)
(-0.132872 0.0241373 -0.000430921)
(-0.135851 0.0149859 -0.000595364)
(-0.137481 0.00552004 -0.000766884)
(-0.137727 -0.00409032 -0.000942645)
(-0.136578 -0.0136706 -0.00111962)
(-0.13404 -0.0230416 -0.0012946)
(-0.130141 -0.0320194 -0.00146424)
(-0.124932 -0.0404174 -0.00162506)
(-0.118488 -0.0480468 -0.00177355)
(-0.110907 -0.0547204 -0.00190619)
(-0.102315 -0.0602559 -0.00201955)
(-0.0928663 -0.0644806 -0.00211037)
(-0.0827407 -0.0672374 -0.00217566)
(-0.0721462 -0.0683921 -0.00221275)
(-0.0613169 -0.0678404 -0.00221943)
(-0.0505102 -0.0655168 -0.00219397)
(-0.0400033 -0.0614031 -0.00213519)
(-0.0300894 -0.0555363 -0.00204238)
(-0.021073 -0.0480162 -0.00191531)
(-0.0132566 -0.0390119 -0.0017559)
(-0.00692556 -0.028764 -0.00156696)
(-0.00244497 -0.0175839 -0.00132776)
(-0.000362125 -0.00587153 -0.000827679)
(-0.000413749 0.00751934 -0.0006126)
(-0.00272315 0.0218496 -0.000413601)
(-0.00761659 0.0350311 -0.000160344)
(-0.0144456 0.0467399 3.29998e-05)
(-0.0227838 0.0567475 0.00019216)
(-0.0323133 0.0648978 0.000316479)
(-0.0427135 0.0711015 0.000405958)
(-0.053675 0.0753284 0.000462547)
(-0.0649101 0.0775988 0.0004882)
(-0.0761535 0.0779739 0.000484775)
(-0.0871634 0.0765475 0.000454145)
(-0.0977217 0.0734384 0.000398201)
(-0.107634 0.0687839 0.000318844)
(-0.116729 0.0627348 0.000218001)
(-0.124858 0.0554512 9.76553e-05)
(-0.131892 0.0470999 -4.0131e-05)
(-0.137725 0.0378523 -0.000193182)
(-0.142268 0.0278844 -0.000359179)
(-0.14545 0.0173756 -0.000535633)
(-0.147219 0.00650975 -0.000719859)
(-0.147542 -0.00452447 -0.000908965)
(-0.146402 -0.0155332 -0.00109984)
(-0.143802 -0.0263166 -0.00128918)
(-0.139768 -0.0366697 -0.00147347)
(-0.134344 -0.0463822 -0.00164904)
(-0.127599 -0.055241 -0.00181213)
(-0.119631 -0.0630323 -0.00195892)
(-0.110562 -0.069546 -0.00208561)
(-0.100545 -0.0745804 -0.00218853)
(-0.0897651 -0.0779496 -0.00226425)
(-0.0784375 -0.0794901 -0.00230961)
(-0.0668086 -0.0790709 -0.00232192)
(-0.055154 -0.076602 -0.00229897)
(-0.043775 -0.0720445 -0.00223916)
(-0.0329947 -0.0654202 -0.00214138)
(-0.0231528 -0.0568197 -0.00200511)
(-0.0145907 -0.0464094 -0.0018323)
(-0.00763422 -0.034434 -0.00162592)
(-0.00269876 -0.0212157 -0.00136304)
(-0.000400394 -0.00717172 -0.000830398)
(-0.000450256 0.00896183 -0.000541473)
(-0.00295787 0.0258087 -0.000297482)
(-0.00826234 0.0411326 -2.36709e-05)
(-0.0156491 0.0546116 0.000184243)
(-0.0246455 0.0660261 0.000354337)
(-0.0348981 0.0752336 0.000486071)
(-0.046054 0.082163 0.000579648)
(-0.0577756 0.0868055 0.000637403)
(-0.0697527 0.0892051 0.000661663)
(-0.0817028 0.0894483 0.000654623)
(-0.0933719 0.0876548 0.000618461)
(-0.104534 0.0839689 0.000555325)
(-0.114991 0.078553 0.000467334)
(-0.124569 0.0715816 0.000356588)
(-0.133121 0.0632372 0.000225199)
(-0.140519 0.0537078 7.53306e-05)
(-0.146659 0.0431846 -9.07711e-05)
(-0.151454 0.0318621 -0.000270733)
(-0.154835 0.0199375 -0.000462019)
(-0.156749 0.00761233 -0.000661897)
(-0.157161 -0.00490737 -0.000867412)
(-0.156052 -0.0174095 -0.00107537)
(-0.153422 -0.0296751 -0.00128234)
(-0.149287 -0.0414781 -0.00148465)
(-0.143688 -0.0525857 -0.0016784)
(-0.136688 -0.0627595 -0.00185957)
(-0.128376 -0.0717583 -0.00202397)
(-0.11887 -0.0793421 -0.00216741)
(-0.108322 -0.0852777 -0.00228577)
(-0.0969168 -0.0893457 -0.00237506)
(-0.0848758 -0.0913494 -0.00243163)
(-0.0724567 -0.0911247 -0.00245218)
(-0.059953 -0.0885512 -0.002434)
(-0.0476904 -0.0835634 -0.00237496)
(-0.0360233 -0.0761615 -0.00227356)
(-0.0253293 -0.0664218 -0.00212892)
(-0.0159921 -0.0545043 -0.001943)
(-0.00838148 -0.0406559 -0.00171896)
(-0.00296767 -0.0252096 -0.00143155)
(-0.000441331 -0.00860385 -0.000858848)
(-0.000488221 0.0105255 -0.000434741)
(-0.00319995 0.0300932 -0.000136937)
(-0.00892531 0.0477228 0.000157631)
(-0.01688 0.063094 0.000379912)
(-0.0265419 0.0759976 0.000560417)
(-0.0375201 0.0863088 0.000698741)
(-0.0494276 0.0939793 0.000795311)
(-0.0618978 0.0990273 0.000852878)
(-0.0745975 0.101526 0.000874169)
(-0.0872277 0.101593 0.000861745)
(-0.0995233 0.0993789 0.000818112)
(-0.111252 0.0950573 0.000745701)
(-0.122213 0.088819 0.00064686)
(-0.132235 0.0808649 0.000523875)
(-0.141172 0.0714017 0.000378998)
(-0.148901 0.0606388 0.000214491)
(-0.155321 0.0487875 3.26741e-05)
(-0.16035 0.03606 -0.00016403)
(-0.16392 0.0226705 -0.000373043)
(-0.165981 0.00883615 -0.000591591)
(-0.166495 -0.00522094 -0.000816664)
(-0.165441 -0.0192723 -0.00104499)
(-0.162813 -0.0330814 -0.001273)
(-0.158622 -0.0464027 -0.00149687)
(-0.152898 -0.0589812 -0.00171247)
(-0.145696 -0.0705536 -0.00191545)
(-0.137095 -0.0808504 -0.00210127)
(-0.127207 -0.0895999 -0.00226529)
(-0.116177 -0.0965342 -0.00240284)
(-0.104188 -0.101396 -0.00250938)
(-0.0914648 -0.103951 -0.0025806)
(-0.0782742 -0.103995 -0.00261257)
(-0.0649263 -0.101369 -0.00260193)
(-0.0517719 -0.0959753 -0.002546)
(-0.0391981 -0.0877846 -0.00244273)
(-0.0276231 -0.0768527 -0.00229088)
(-0.0174766 -0.0633286 -0.00209235)
(-0.00917712 -0.0474587 -0.00185049)
(-0.00325579 -0.0295873 -0.00153755)
(-0.000485717 -0.0101769 -0.000916165)
(-0.000528089 0.0122147 -0.000288836)
(-0.00345176 0.0347131 7.2657e-05)
(-0.00961105 0.0548134 0.000388278)
(-0.0181468 0.0721968 0.000624681)
(-0.0284832 0.0866674 0.000814938)
(-0.0401893 0.0981221 0.000958811)
(-0.0528415 0.106541 0.001057)
(-0.0660431 0.111975 0.00111271)
(-0.079438 0.114535 0.00112914)
(-0.0927112 0.114374 0.00110924)
(-0.105588 0.111679 0.0010559)
(-0.117833 0.106659 0.000971848)
(-0.129244 0.0995358 0.000859701)
(-0.139655 0.0905399 0.000721938)
(-0.148925 0.0799031 0.000560958)
(-0.156939 0.0678576 0.000379124)
(-0.163602 0.0546338 0.000178822)
(-0.168836 0.040461 -3.74854e-05)
(-0.17258 0.0255685 -0.000267194)
(-0.174785 0.0101875 -0.000507503)
(-0.175414 -0.00544656 -0.000755362)
(-0.17444 -0.0210911 -0.00100743)
(-0.171853 -0.0364943 -0.00126004)
(-0.167656 -0.0513929 -0.00150919)
(-0.161867 -0.0655114 -0.00175052)
(-0.15453 -0.078562 -0.00197936)
(-0.145712 -0.0902467 -0.00219078)
(-0.135513 -0.10026 -0.00237962)
(-0.124067 -0.108297 -0.00254065)
(-0.111552 -0.114059 -0.00266863)
(-0.098192 -0.117264 -0.00275855)
(-0.0842613 -0.117664 -0.00280573)
(-0.0700844 -0.115055 -0.00280604)
(-0.0560364 -0.109293 -0.0027561)
(-0.0425386 -0.100314 -0.00265324)
(-0.0300526 -0.0881456 -0.00249573)
(-0.019059 -0.072919 -0.00228535)
(-0.0100305 -0.0548773 -0.00202559)
(-0.00356711 -0.034375 -0.00168597)
(-0.000534324 -0.0119017 -0.00100605)
(-0.000570326 0.0140353 -9.98092e-05)
(-0.00371573 0.0396808 0.000336403)
(-0.0103252 0.0624189 0.000673457)
(-0.019458 0.0819324 0.000923678)
(-0.0304793 0.0980415 0.00112286)
(-0.042914 0.11067 0.00127099)
(-0.0562995 0.119833 0.00136909)
(-0.0702076 0.125624 0.00142092)
(-0.0842591 0.128194 0.0014302)
(-0.0981244 0.127743 0.00140036)
(-0.111522 0.1245 0.00133471)
(-0.124213 0.118713 0.00123635)
(-0.136004 0.110641 0.00110816)
(-0.146731 0.100546 0.000952844)
(-0.156266 0.0886853 0.000772958)
(-0.164502 0.0753153 0.000570962)
(-0.171355 0.0606849 0.000349292)
(-0.176756 0.045039 0.000110435)
(-0.18065 0.0286197 -0.000143003)
(-0.182991 0.0116694 -0.000408223)
(-0.183743 -0.00556566 -0.000682167)
(-0.182877 -0.0228321 -0.000961453)
(-0.180375 -0.0398657 -0.00124233)
(-0.17623 -0.0563884 -0.00152065)
(-0.17045 -0.0721062 -0.00179183)
(-0.16306 -0.0867083 -0.00205089)
(-0.154114 -0.099868 -0.00229245)
(-0.143692 -0.111246 -0.00251083)
(-0.131917 -0.120495 -0.00270013)
(-0.118956 -0.127271 -0.0028544)
(-0.105026 -0.131242 -0.00296775)
(-0.0904038 -0.132103 -0.00303462)
(-0.0754271 -0.129595 -0.00305)
(-0.0604937 -0.123523 -0.00300962)
(-0.04606 -0.113773 -0.00291004)
(-0.0326343 -0.100335 -0.00274889)
(-0.0207531 -0.0833166 -0.00252774)
(-0.0109509 -0.0629516 -0.00225016)
(-0.00390567 -0.0396035 -0.00188261)
(-0.000587949 -0.0137916 -0.0011329)
(-0.000615463 0.0159944 0.000136748)
(-0.00399464 0.0450119 0.000659999)
(-0.0110741 0.070557 0.00101895)
(-0.0208227 0.0923148 0.0012826)
(-0.0325401 0.110125 0.00148965)
(-0.0457017 0.123946 0.00164041)
(-0.0598026 0.133835 0.00173632)
(-0.0743816 0.139935 0.00178179)
(-0.0890369 0.142452 0.00178117)
(-0.103426 0.141637 0.00173847)
(-0.117262 0.137768 0.00165749)
(-0.130312 0.131141 0.00154175)
(-0.142386 0.122053 0.00139445)
(-0.153336 0.110802 0.00121854)
(-0.163045 0.0976735 0.00101674)
(-0.171422 0.0829466 0.00079158)
(-0.178396 0.0668881 0.000545547)
(-0.183911 0.0497562 0.000281117)
(-0.187919 0.0318034 8.61466e-07)
(-0.190381 0.0132802 -0.000292464)
(-0.191261 -0.00556063 -0.000595832)
(-0.19053 -0.0244585 -0.000905871)
(-0.188162 -0.0431407 -0.00121879)
(-0.184138 -0.061318 -0.00153032)
(-0.178452 -0.078681 -0.00183569)
(-0.17111 -0.0948979 -0.00212959)
(-0.162144 -0.109615 -0.00240623)
(-0.151615 -0.122456 -0.00265935)
(-0.139624 -0.133034 -0.00288235)
(-0.12632 -0.140951 -0.00306841)
(-0.111911 -0.145817 -0.00321069)
(-0.09667 -0.147264 -0.00330257)
(-0.0809417 -0.144966 -0.00333796)
(-0.0651456 -0.138662 -0.00331153)
(-0.0497732 -0.128178 -0.00321883)
(-0.0353827 -0.113456 -0.00305666)
(-0.0225727 -0.0945654 -0.00282625)
(-0.0119477 -0.0717264 -0.00253113)
(-0.00427568 -0.0453082 -0.00213432)
(-0.000647449 -0.0158618 -0.001302)
(-0.000664156 0.0181004 0.000425798)
(-0.00429183 0.050725 0.00104987)
(-0.0118653 0.0792489 0.00143128)
(-0.0222519 0.10336 0.00170782)
(-0.0346766 0.122922 0.00192141)
(-0.0485595 0.137936 0.00207273)
(-0.0633493 0.148514 0.00216381)
(-0.0785499 0.154858 0.00219987)
(-0.0937377 0.157238 0.00218601)
(-0.10856 0.155968 0.00212696)
(-0.12273 0.151386 0.00202711)
(-0.13602 0.143836 0.00189046)
(-0.148257 0.133665 0.0017206)
(-0.159309 0.121204 0.00152074)
(-0.169077 0.106771 0.00129375)
(-0.177491 0.0906663 0.00104226)
(-0.184497 0.0731733 0.000768755)
(-0.190054 0.0545612 0.000475662)
(-0.194127 0.0350892 0.00016547)
(-0.196684 0.0150117 -0.000159162)
(-0.197695 -0.00541589 -0.000495305)
(-0.197126 -0.025931 -0.000839653)
(-0.194944 -0.0462572 -0.00118843)
(-0.19112 -0.0660986 -0.00153732)
(-0.185627 -0.0851346 -0.00188139)
(-0.178452 -0.103016 -0.00221507)
(-0.169601 -0.119362 -0.00253211)
(-0.159106 -0.133765 -0.00282569)
(-0.147042 -0.14579 -0.00308841)
(-0.133533 -0.154985 -0.00331253)
(-0.118767 -0.160893 -0.0034901)
(-0.103008 -0.163074 -0.00361326)
(-0.0866013 -0.161121 -0.0036746)
(-0.0699847 -0.154693 -0.00366748)
(-0.053684 -0.143541 -0.00358617)
(-0.0383103 -0.127539 -0.00342638)
(-0.0245309 -0.106711 -0.00318876)
(-0.0130307 -0.0812509 -0.00287668)
(-0.00468174 -0.051529 -0.00244928)
(-0.000713796 -0.0181297 -0.00151965)
(-0.000717267 0.0203639 0.000772975)
(-0.00461164 0.0568432 0.00151338)
(-0.0127084 0.0885198 0.00191788)
(-0.0237589 0.115085 0.00220659)
(-0.0369024 0.136435 0.00242495)
(-0.0514953 0.152622 0.0025742)
(-0.0669356 0.163826 0.00265712)
(-0.0826909 0.170323 0.00267995)
(-0.0983168 0.172462 0.00264877)
(-0.113454 0.170628 0.00256916)
(-0.127821 0.165228 0.00244623)
(-0.141205 0.156667 0.00228459)
(-0.153451 0.145341 0.00208824)
(-0.164452 0.131621 0.00186069)
(-0.174136 0.115855 0.00160499)
(-0.182455 0.0983656 0.00132382)
(-0.189379 0.0794502 0.00101962)
(-0.194888 0.0593856 0.000694725)
(-0.198961 0.0384337 0.000351482)
(-0.201578 0.016848 -7.62829e-06)
(-0.202712 -0.00511922 -0.000379849)
(-0.202331 -0.0272086 -0.000762027)
(-0.200393 -0.0491461 -0.00115049)
(-0.196855 -0.0706348 -0.00154094)
(-0.191673 -0.0913482 -0.00192836)
(-0.184805 -0.110924 -0.00230696)
(-0.176228 -0.12896 -0.00267009)
(-0.165941 -0.145015 -0.00301033)
(-0.153982 -0.158607 -0.00331949)
(-0.140442 -0.169226 -0.00358876)
(-0.12548 -0.176343 -0.00380896)
(-0.109339 -0.179431 -0.00397076)
(-0.0923608 -0.17799 -0.00406518)
(-0.0749925 -0.171581 -0.00408391)
(-0.0577929 -0.159859 -0.00401964)
(-0.0414281 -0.142613 -0.00386658)
(-0.0266417 -0.119801 -0.00362456)
(-0.0142107 -0.0915788 -0.00329654)
(-0.00512914 -0.058311 -0.00283721)
(-0.000788139 -0.0206156 -0.00179343)
(-0.000775968 0.0227981 0.00118475)
(-0.00495985 0.0633947 0.00205901)
(-0.013616 0.0983998 0.00248736)
(-0.0253613 0.12751 0.00278722)
(-0.0392343 0.150662 0.003008)
(-0.0545187 0.167974 0.00315174)
(-0.0705557 0.17971 0.00322226)
(-0.0867758 0.186239 0.00322707)
(-0.102716 0.188001 0.0031735)
(-0.118017 0.185472 0.0030682)
(-0.132408 0.179135 0.0029172)
(-0.145699 0.169465 0.00272577)
(-0.157764 0.156911 0.00249845)
(-0.168527 0.141887 0.00223906)
(-0.177947 0.124772 0.0019508)
(-0.18601 0.105909 0.00163638)
(-0.192713 0.0856053 0.00129817)
(-0.19806 0.0641421 0.000938325)
(-0.202051 0.0417789 0.000558961)